                         Program Version 3.0.2 -  RELEASE  -
|  1> ! RHF DZ LARGEPRINT PRINTBASIS PRINTGAP ALLPOP Opt AnFreq NumFreq bohrs
|  2>
|  3> * xyz 0 1
|  4> Li      -2.6077434864      1.6215265031      0.0435645003
|  5> H       -0.7878755679      1.5789122137      0.0000000000
|  6> *
|  7>
|  8>                          ****END OF INPUT****
 Total Charge           Charge          ....    0
 Multiplicity           Mult            ....    1
 Number of Electrons    NEL             ....    4
FINAL SINGLE POINT ENERGY        -7.841943789376
FINAL SINGLE POINT ENERGY        -7.871729171220
FINAL SINGLE POINT ENERGY        -7.926301734691
FINAL SINGLE POINT ENERGY        -7.953807849167
FINAL SINGLE POINT ENERGY        -7.964390767474
FINAL SINGLE POINT ENERGY        -7.967562447694
FINAL SINGLE POINT ENERGY        -7.968099099300
FINAL SINGLE POINT ENERGY        -7.968132820470
FINAL SINGLE POINT ENERGY        -7.968133226514
                    ***********************HURRAY********************

CARTESIAN COORDINATES (ANGSTROEM)
---------------------------------
  Li    -1.716803    0.865962    0.031117
  H     -0.080082    0.827637   -0.008063

 Multiplicity           Mult            ....    1
 Number of Electrons    NEL             ....    4
 Basis Dimension        Dim             ....    6

ORBITAL ENERGIES
----------------

  NO   OCC          E(Eh)            E(eV)
   0   2.0000      -2.479574       -67.4726
   1   2.0000      -0.294882        -8.0241
   2   0.0000       0.041292         1.1236
   3   0.0000       0.807348        21.9690
   4   0.0000       1.359831        37.0029
   5   0.0000      10.165122       276.6070
------------------
MOLECULAR ORBITALS
------------------
                      0         1         2         3         4         5
                  -2.47957  -0.29488   0.04129   0.80735   1.35983  10.16512
                   2.00000   2.00000   0.00000   0.00000   0.00000   0.00000
                  --------  --------  --------  --------  --------  --------
  0Li  1s         0.393010  0.044416 -0.040615 -0.008650  0.184733  1.601496
  0Li  2s         0.452535  0.081896 -0.049435  0.044513  1.282347 -2.360290
  0Li  3s         0.278112  0.051453 -0.110973 -0.151048 -1.819155  1.185510
  0Li  4s         0.005548 -0.272071  1.263000 -0.342368  0.393899 -0.138233
  1H   1s         0.002928 -0.381803 -0.114648 -1.365997  0.045533 -0.010102
  1H   2s        -0.001706 -0.538809 -0.783266  1.452373 -0.001036 -0.004773

MULLIKEN ATOMIC CHARGES
-----------------------
   0 Li:    0.639623
   1 H :   -0.639623
Sum of atomic charges:   -0.0000000

LOEWDIN ATOMIC CHARGES
----------------------
   0 Li:    0.600099
   1 H :   -0.600099

  Mayer bond orders larger than 0.1
B(  0-Li,  1-H ) :   0.5893

FINAL SINGLE POINT ENERGY        -7.968133226852

DIPOLE MOMENT
-------------
                                X             Y             Z
Electronic contribution:     -3.95767       0.09267       0.09474
Nuclear contribution   :      1.52410      -0.03569      -0.03648
                        -----------------------------------------
Total Dipole Moment    :     -2.43357       0.05698       0.05826
                        -----------------------------------------
Magnitude (a.u.)       :      2.43493
Magnitude (Debye)      :      6.18911

VIBRATIONAL FREQUENCIES
-----------------------

   0:         0.00 cm**-1
   1:         0.00 cm**-1
   2:         0.00 cm**-1
   3:         0.00 cm**-1
   4:         0.00 cm**-1
   5:      1368.42 cm**-1

IR SPECTRUM
-----------

 Mode    freq (cm**-1)   T**2         TX         TY         TZ
-------------------------------------------------------------------
   5:      1368.42  131.105214  ( 11.443704  -0.267973  -0.273946)

--------------------------
THERMOCHEMISTRY AT 298.15K
--------------------------

Temperature         ... 298.15 K
Pressure            ... 1.00 atm
Total Mass          ... 7.95 AMU
The molecule is recognized as being linear

Throughout the following assumptions are being made:
  (1) The electronic state is orbitally nondegenerate
  (2) There are no thermally accessible electronically excited states
  (3) Hindered rotations indicated by low frequency modes) are not
      treated as such but are treated as vibrations and this may
      case some error
  (4) All equations used are the standard statistical mechanics
      equations for an ideal gas
  (5) All vibrations are strinctly harmonic

------------
INNER ENERGY
------------

The inner energy is: U= E(el) + E(ZPE) + E(vib) + E(rot) + E(trans)
    E(el)   - is the total energy from the electronic structure calculation
              = E(kin-el) + E(nuc-el) + E(el-el) + E(nuc-nuc)
    E(ZPE)  - the the zero temperature vibrational energy from the frequency calculation
    E(vib)  - the the finite temperature correction to E(ZPE) due to population
              of excietd vibrational states
    E(rot)  - is the rotational thermal energy
    E(trans)- is the translational thermal energy

Summary of contributions to the inner energy U:
Electronic energy                ...     -7.96813323 Eh
Zero point energy                ...      0.00311749 Eh       1.96 kcal/mol
Thermal vibrational correction   ...      0.00000846 Eh       0.01 kcal/mol
Thermal rotational correction    ...      0.00094418 Eh       0.59 kcal/mol
Thermal translational correction ...      0.00141627 Eh       0.89 kcal/mol
-----------------------------------------------------------------------
Total thermal energy                     -7.96264682 Eh

Summary of corrections to the electronic energy:
(perhaps to be used in another calculation)
Total thermal correction                  0.00236892 Eh       1.49 kcal/mol
Non-thermal (ZPE) correction              0.00311749 Eh       1.96 kcal/mol
-----------------------------------------------------------------------
Total correction                          0.00548641 Eh       3.44 kcal/mol

--------
ENTHALPY
--------

The enthalpy is H = U + kB*T
                kB is Boltzmann's constant
Total free energy                 ...     -7.96264682 Eh
Thermal Enthalpy correction       ...      0.00094421 Eh       0.59 kcal/mol
-----------------------------------------------------------------------
Total Enthalpy                    ...     -7.96170261 Eh

-------
ENTROPY
-------

The entropy contributions are T*S = T*(S(el)+S(vib)+S(rot)+S(trans)
     S(el)   - electronic entropy
     S(vib)  - vibrational entropy
     S(rot)  - rotational entropy
     S(trans)- translational entropy
The entropies will be listed as mutliplied by the temperature to get
units of energy

Electronic entropy                ...      0.00000000 Eh      0.00 kcal/mol
Vibrational entropy               ...      0.00000975 Eh      0.01 kcal/mol
Rotational entropy                ...      0.00346962 Eh      2.18 kcal/mol
Translational entropy             ...      0.01528507 Eh      9.59 kcal/mol
-----------------------------------------------------------------------
Final entropy term                ...      0.01876443 Eh     11.77 kcal/mol

CAUTION: The rotational entropy is not quite correctly treated here
         because it includes a symmetry number that is not yet correctly
         implemented in ORCA!
For a linear molecule the correct rotational entropy is:
    S(rot) = R*(ln(qrot/sn)+1)
    R    = 8.31441 J/mol/K = 1.987191683e-3 kcal/mol/K
    qrot =   29.0170618
    sn is the rotational symmetry number. We have assumed 2 here
       if it is different for your molecule then you should correct
       the printed rotational entropy by manually evaluating the equation
       as given above

For convenience we print out the resulting values for sn=1 - 12:
 sn= 1  qrot/sn=      29.0171 T*S(rot)=     2.59 kcal/mol T*S(tot)=    12.19 kcal/mol
 sn= 2  qrot/sn=      14.5085 T*S(rot)=     2.18 kcal/mol T*S(tot)=    11.77 kcal/mol
 sn= 3  qrot/sn=       9.6724 T*S(rot)=     1.94 kcal/mol T*S(tot)=    11.53 kcal/mol
 sn= 4  qrot/sn=       7.2543 T*S(rot)=     1.77 kcal/mol T*S(tot)=    11.36 kcal/mol
 sn= 5  qrot/sn=       5.8034 T*S(rot)=     1.63 kcal/mol T*S(tot)=    11.23 kcal/mol
 sn= 6  qrot/sn=       4.8362 T*S(rot)=     1.53 kcal/mol T*S(tot)=    11.12 kcal/mol
 sn= 7  qrot/sn=       4.1453 T*S(rot)=     1.43 kcal/mol T*S(tot)=    11.03 kcal/mol
 sn= 8  qrot/sn=       3.6271 T*S(rot)=     1.36 kcal/mol T*S(tot)=    10.95 kcal/mol
 sn= 9  qrot/sn=       3.2241 T*S(rot)=     1.29 kcal/mol T*S(tot)=    10.88 kcal/mol
 sn=10  qrot/sn=       2.9017 T*S(rot)=     1.22 kcal/mol T*S(tot)=    10.82 kcal/mol
 sn=11  qrot/sn=       2.6379 T*S(rot)=     1.17 kcal/mol T*S(tot)=    10.76 kcal/mol
 sn=12  qrot/sn=       2.4181 T*S(rot)=     1.12 kcal/mol T*S(tot)=    10.71 kcal/mol

-------------------
GIBBS FREE ENTHALPY
-------------------

The Gibbs free enthalpy is G = H - T*S

Total enthalpy                    ...     -7.96170261 Eh
Total entropy correction          ...     -0.01876443 Eh    -11.77 kcal/mol
-----------------------------------------------------------------------
Final Gibbs free enthalpy         ...     -7.98046704 Eh

For completeness - the Gibbs free enthalpy minus the electronic energy
G-E(el)                           ...     -0.01233381 Eh     -7.74 kcal/mol

                             ****ORCA TERMINATED NORMALLY****
TOTAL RUN TIME: 0 days 0 hours 0 minutes 36 seconds 353 msec
