                         Program Version 3.0.2 -  RELEASE  -
|  1> ! RHF VTZ LARGEPRINT PRINTBASIS PRINTGAP ALLPOP
|  2>
|  3> * xyz 0 1
|  4> Li      -2.5161668455      1.6193821313      0.0413723134
|  5> H       -0.8794522088      1.5810565855      0.0021921869
|  6> *
|  7>
|  8>                          ****END OF INPUT****

CARTESIAN COORDINATES (ANGSTROEM)
---------------------------------
  Li    -2.516167    1.619382    0.041372
  H     -0.879452    1.581057    0.002192

 Total Charge           Charge          ....    0
 Multiplicity           Mult            ....    1
 Number of Electrons    NEL             ....    4
 Basis Dimension        Dim             ....    9

ORBITAL ENERGIES
----------------

  NO   OCC          E(Eh)            E(eV)
   0   2.0000      -2.475707       -67.3674
   1   2.0000      -0.296783        -8.0759
   2   0.0000       0.021856         0.5947
   3   0.0000       0.152096         4.1387
   4   0.0000       0.520640        14.1673
   5   0.0000       1.371686        37.3255
   6   0.0000       2.733959        74.3948

------------------
MOLECULAR ORBITALS
------------------
                      0         1         2         3         4         5
                  -2.47571  -0.29678   0.02186   0.15210   0.52064   1.37169
                   2.00000   2.00000   0.00000   0.00000   0.00000   0.00000
                  --------  --------  --------  --------  --------  --------
  0Li  1s        -0.178954 -0.021299 -0.010822  0.027985 -0.003581 -0.132001
  0Li  2s        -0.304327 -0.035563 -0.019128  0.076390 -0.022271  0.071879
  0Li  3s        -0.429822 -0.083013 -0.039457  0.028473  0.036819 -1.661368
  0Li  4s        -0.230866 -0.056379 -0.034817  0.309111 -0.176014  2.376937
  0Li  5s        -0.008019  0.196798  0.055079 -2.218630  0.074164 -1.263160
  0Li  6s         0.002344  0.061387  1.206268  1.552338 -0.478230  0.602170
  1H   1s        -0.001579  0.164919 -0.075245  0.016411 -0.077067 -0.060804
  1H   2s        -0.000540  0.309463  0.009032  0.019088 -1.564702  0.060030
  1H   3s         0.001096  0.494153 -0.781748  0.463481  1.841835  0.034232
                      6         7         8
                   2.73396   6.64778  30.54952
                   0.00000   0.00000   0.00000
                  --------  --------  --------
  0Li  1s        -0.007711 -0.100635  1.820483
  0Li  2s         0.009817 -2.105685 -2.953959
  0Li  3s        -0.124226  3.520896  2.311447
  0Li  4s         0.161304 -1.872794 -0.946049
  0Li  5s        -0.080247  0.534141  0.254222
  0Li  6s        -0.150523 -0.238642 -0.115037
  1H   1s         1.563356 -0.027415 -0.010211
  1H   2s        -1.928472  0.046282  0.016894
  1H   3s         0.965842 -0.049346 -0.020639

MULLIKEN ATOMIC CHARGES
-----------------------
   0 Li:    0.676150
   1 H :   -0.676150
Sum of atomic charges:    0.0000000

LOEWDIN ATOMIC CHARGES
----------------------
   0 Li:    0.577066
   1 H :   -0.577066

  Mayer bond orders larger than 0.1
B(  0-Li,  1-H ) :   0.5417

FINAL SINGLE POINT ENERGY        -7.970912358920

DIPOLE MOMENT
-------------
                                X             Y             Z
Electronic contribution:     -3.98243       0.09325       0.09533
Nuclear contribution   :      1.52410      -0.03569      -0.03648
                        -----------------------------------------
Total Dipole Moment    :     -2.45833       0.05756       0.05885
                        -----------------------------------------
Magnitude (a.u.)       :      2.45971
Magnitude (Debye)      :      6.25208

                             ****ORCA TERMINATED NORMALLY****
TOTAL RUN TIME: 0 days 0 hours 0 minutes 3 seconds 764 msec
