                         Program Version 3.0.2 -  RELEASE  -
|  1> ! RHF DZ LARGEPRINT PRINTBASIS PRINTGAP ALLPOP Opt AnFreq NumFreq bohrs
|  2>
|  3> * xyz 0 1
|  4> C       -0.5596525601     -0.0428051827     -0.0000000929
|  5> H       -0.9294543768     -1.0597015995      0.2448233811
|  6> H       -0.9294533829      0.6776673958      0.7582457726
|  7> H       -0.9294507939      0.2536197353     -1.0030712327
|  8> H        0.5497482590     -0.0428064112      0.0000017434
|  9> *
| 10>
| 11>                          ****END OF INPUT****
 Total Charge           Charge          ....    0
 Multiplicity           Mult            ....    1
 Number of Electrons    NEL             ....   10
FINAL SINGLE POINT ENERGY       -38.103686082900
FINAL SINGLE POINT ENERGY       -38.988202684106
FINAL SINGLE POINT ENERGY       -39.529228141687
FINAL SINGLE POINT ENERGY       -39.854020989197
FINAL SINGLE POINT ENERGY       -40.039661194811
FINAL SINGLE POINT ENERGY       -40.134329622977
FINAL SINGLE POINT ENERGY       -40.165397345304
FINAL SINGLE POINT ENERGY       -40.170676649505
FINAL SINGLE POINT ENERGY       -40.171021852396
FINAL SINGLE POINT ENERGY       -40.171026201034
                    ***********************HURRAY********************

CARTESIAN COORDINATES (ANGSTROEM)
---------------------------------
  C     -0.296155   -0.022652   -0.000000
  H     -0.659475   -1.021724    0.240532
  H     -0.659474    0.685193    0.744955
  H     -0.659472    0.268578   -0.985489
  H      0.793800   -0.022653    0.000002

 Multiplicity           Mult            ....    1
 Number of Electrons    NEL             ....   10
 Basis Dimension        Dim             ....   18

ORBITAL ENERGIES
----------------

  NO   OCC          E(Eh)            E(eV)
   0   2.0000     -11.216007      -305.2031
   1   2.0000      -0.943771       -25.6813
   2   2.0000      -0.545074       -14.8322
   3   2.0000      -0.545074       -14.8322
   4   2.0000      -0.545074       -14.8322
   5   0.0000       0.197473         5.3735
   6   0.0000       0.272827         7.4240
   7   0.0000       0.272827         7.4240
   8   0.0000       0.272827         7.4240
   9   0.0000       0.601154        16.3582

------------------
MOLECULAR ORBITALS
------------------
                      0         1         2         3         4         5
                 -11.21601  -0.94377  -0.54507  -0.54507  -0.54507   0.19747
                   2.00000   2.00000   2.00000   2.00000   2.00000   0.00000
                  --------  --------  --------  --------  --------  --------
  0C   1s        -0.647268  0.133715  0.000000  0.000000 -0.000000 -0.075522
  0C   2s        -0.416629  0.171473  0.000000  0.000000 -0.000000 -0.082728
  0C   3s        -0.041372 -0.380612 -0.000000 -0.000000  0.000000  0.031672
  0C   4s         0.022067 -0.382573  0.000000 -0.000000 -0.000000  2.135332
  0C   1pz       -0.000000  0.000000  0.373085  0.229020 -0.002864  0.000000
  0C   1px        0.000000 -0.000000 -0.224486  0.366727  0.082267 -0.000000
  0C   1py        0.000000 -0.000000  0.045436 -0.068641  0.429970 -0.000000
  0C   2pz        0.000000 -0.000000  0.187427  0.115053 -0.001439  0.000000
  0C   2px       -0.000000  0.000000 -0.112775  0.184233  0.041329 -0.000000
  0C   2py       -0.000000  0.000000  0.022826 -0.034483  0.216005 -0.000000
  1H   1s        -0.000148 -0.170986  0.104726 -0.007964 -0.382744 -0.011679
  1H   2s        -0.003346 -0.006877  0.034218 -0.002602 -0.125056 -0.765627
  2H   1s        -0.000148 -0.170986  0.325770 -0.009330  0.226519 -0.011679
  2H   2s        -0.003346 -0.006877  0.106441 -0.003048  0.074012 -0.765627
  3H   1s        -0.000148 -0.170986 -0.226976 -0.315183  0.081642 -0.011679
  3H   2s        -0.003346 -0.006877 -0.074161 -0.102982  0.026675 -0.765627
  4H   1s        -0.000148 -0.170986 -0.203520  0.332477  0.074583 -0.011679
  4H   2s        -0.003346 -0.006877 -0.066497  0.108632  0.024369 -0.765627
                      6         7         8         9        10        11
                   0.27283   0.27283   0.27283   0.60115   0.60115   0.60115
                   0.00000   0.00000   0.00000   0.00000   0.00000   0.00000
                  --------  --------  --------  --------  --------  --------
  0C   1s        -0.000000 -0.000000 -0.000000  0.000000  0.000000 -0.000000
  0C   2s        -0.000000 -0.000000 -0.000000  0.000000  0.000000 -0.000000
  0C   3s         0.000000  0.000000  0.000000 -0.000000 -0.000000  0.000000
  0C   4s         0.000000  0.000000  0.000000  0.000000  0.000000 -0.000000
  0C   1pz       -0.047037 -0.110819 -0.261806 -0.051801 -0.188878 -0.278235
  0C   1px        0.093624 -0.256601  0.091794 -0.009164 -0.280619  0.192203
  0C   1py        0.268435  0.070078 -0.077891 -0.336163  0.036755  0.037635
  0C   2pz       -0.224572 -0.529090 -1.249961  0.217256  0.792164  1.166930
  0C   2px        0.446998 -1.225108  0.438261  0.038433  1.176929 -0.806108
  0C   2py        1.281612  0.334580 -0.371881  1.409884 -0.154151 -0.157843
  1H   1s         0.047675  0.000523  0.002814  0.803217  0.048683 -0.428639
  1H   2s         2.211521  0.024270  0.130531  0.063758  0.003864 -0.034024
  2H   1s        -0.018393 -0.009166  0.043114 -0.671668 -0.031308 -0.615745
  2H   2s        -0.853207 -0.425194  1.999926 -0.053315 -0.002485 -0.048876
  3H   1s        -0.013764 -0.033887 -0.030713 -0.106995  0.734564  0.529365
  3H   2s        -0.638489 -1.571946 -1.424701 -0.008493  0.058308  0.042020
  4H   1s        -0.015518  0.042530 -0.015214 -0.024554 -0.751939  0.515019
  4H   2s        -0.719826  1.972870 -0.705756 -0.001949 -0.059687  0.040881
                     12        13        14        15        16        17
                   0.99422   0.99422   0.99422   1.01937   1.27166  14.18963
                   0.00000   0.00000   0.00000   0.00000   0.00000   0.00000
                  --------  --------  --------  --------  --------  --------
  0C   1s         0.000000 -0.000000 -0.000000  0.132645  0.130931 -1.321487
  0C   2s         0.000000 -0.000000 -0.000000  0.217706  0.305758  1.811811
  0C   3s        -0.000000  0.000000  0.000000 -0.902168 -2.201908 -1.196770
  0C   4s         0.000000 -0.000000 -0.000000  0.083526  4.352694  1.044963
  0C   1pz       -0.089238  0.555924  0.960737  0.000000 -0.000000  0.000000
  0C   1px        0.285000  0.943000 -0.519188 -0.000000  0.000000 -0.000000
  0C   1py        1.072773 -0.204280  0.217850 -0.000000  0.000000 -0.000000
  0C   2pz        0.100331 -0.625030 -1.080164 -0.000000  0.000000  0.000000
  0C   2px       -0.320428 -1.060222  0.583728  0.000000 -0.000000 -0.000000
  0C   2py       -1.206127  0.229673 -0.244930  0.000000 -0.000000 -0.000000
  1H   1s         0.797402  0.003200 -0.134637  0.732322 -0.496866  0.012724
  1H   2s        -1.548681 -0.006215  0.261487 -0.309043 -0.567566 -0.166493
  2H   1s        -0.392663  0.048685 -0.705289  0.732322 -0.496866  0.012724
  2H   2s         0.762613 -0.094554  1.369784 -0.309043 -0.567566 -0.166493
  3H   1s        -0.197767  0.632941  0.462883  0.732322 -0.496866  0.012724
  3H   2s         0.384095 -1.229273 -0.898992 -0.309043 -0.567566 -0.166493
  4H   1s        -0.206972 -0.684827  0.377044  0.732322 -0.496866  0.012724
  4H   2s         0.401973  1.330042 -0.732280 -0.309043 -0.567566 -0.166493

MULLIKEN ATOMIC CHARGES
-----------------------
   0 C :   -0.508503
   1 H :    0.127126
   2 H :    0.127126
   3 H :    0.127126
   4 H :    0.127126
Sum of atomic charges:   -0.0000000

LOEWDIN ATOMIC CHARGES
----------------------
   0 C :   -0.352445
   1 H :    0.088111
   2 H :    0.088111
   3 H :    0.088111
   4 H :    0.088111

  Mayer bond orders larger than 0.1
B(  0-C ,  1-H ) :   0.9743 B(  0-C ,  2-H ) :   0.9743 B(  0-C ,  3-H ) :   0.9743
B(  0-C ,  4-H ) :   0.9743

FINAL SINGLE POINT ENERGY       -40.171026204869

DIPOLE MOMENT
-------------
                                X             Y             Z
Electronic contribution:      0.00000       0.00000      -0.00000
Nuclear contribution   :     -0.00000      -0.00000       0.00000
                        -----------------------------------------
Total Dipole Moment    :      0.00000      -0.00000       0.00000
                        -----------------------------------------
Magnitude (a.u.)       :      0.00000
Magnitude (Debye)      :      0.00000

VIBRATIONAL FREQUENCIES
-----------------------

   0:         0.00 cm**-1
   1:         0.00 cm**-1
   2:         0.00 cm**-1
   3:         0.00 cm**-1
   4:         0.00 cm**-1
   5:         0.00 cm**-1
   6:      1488.45 cm**-1
   7:      1488.46 cm**-1
   8:      1488.48 cm**-1
   9:      1664.67 cm**-1
  10:      1664.69 cm**-1
  11:      3138.60 cm**-1
  12:      3280.74 cm**-1
  13:      3280.75 cm**-1
  14:      3280.77 cm**-1

IR SPECTRUM
-----------

 Mode    freq (cm**-1)   T**2         TX         TY         TZ
-------------------------------------------------------------------
   6:      1488.45   43.507200  (  0.357942   3.670112   5.468944)
   7:      1488.46   29.887482  (  1.622321  -4.493347   2.658080)
   8:      1488.48   42.167667  (  6.329362  -0.445153   1.381550)
   9:      1664.67    3.552197  (  0.586630  -1.525975  -0.937796)
  10:      1664.69    2.120288  ( -0.452140   1.181879   0.720431)
  11:      3138.60    0.000031  ( -0.003679   0.002997   0.002916)
  12:      3280.74   58.125185  (  7.079571   2.805002   0.369893)
  13:      3280.75   60.224737  (  0.843309  -5.683438   5.216522)
  14:      3280.77   56.524231  ( -2.429454   4.444687   5.555785)

--------------------------
THERMOCHEMISTRY AT 298.15K
--------------------------

Temperature         ... 298.15 K
Pressure            ... 1.00 atm
Total Mass          ... 16.04 AMU

Throughout the following assumptions are being made:
  (1) The electronic state is orbitally nondegenerate
  (2) There are no thermally accessible electronically excited states
  (3) Hindered rotations indicated by low frequency modes) are not
      treated as such but are treated as vibrations and this may
      case some error
  (4) All equations used are the standard statistical mechanics
      equations for an ideal gas
  (5) All vibrations are strinctly harmonic

------------
INNER ENERGY
------------

The inner energy is: U= E(el) + E(ZPE) + E(vib) + E(rot) + E(trans)
    E(el)   - is the total energy from the electronic structure calculation
              = E(kin-el) + E(nuc-el) + E(el-el) + E(nuc-nuc)
    E(ZPE)  - the the zero temperature vibrational energy from the frequency calculation
    E(vib)  - the the finite temperature correction to E(ZPE) due to population
              of excietd vibrational states
    E(rot)  - is the rotational thermal energy
    E(trans)- is the translational thermal energy

Summary of contributions to the inner energy U:
Electronic energy                ...    -40.17102620 Eh
Zero point energy                ...      0.04733035 Eh      29.70 kcal/mol
Thermal vibrational correction   ...      0.00002040 Eh       0.01 kcal/mol
Thermal rotational correction    ...      0.00141627 Eh       0.89 kcal/mol
Thermal translational correction ...      0.00141627 Eh       0.89 kcal/mol
-----------------------------------------------------------------------
Total thermal energy                    -40.12084291 Eh

Summary of corrections to the electronic energy:
(perhaps to be used in another calculation)
Total thermal correction                  0.00285294 Eh       1.79 kcal/mol
Non-thermal (ZPE) correction              0.04733035 Eh      29.70 kcal/mol
-----------------------------------------------------------------------
Total correction                          0.05018329 Eh      31.49 kcal/mol

--------
ENTHALPY
--------

The enthalpy is H = U + kB*T
                kB is Boltzmann's constant
Total free energy                 ...    -40.12084291 Eh
Thermal Enthalpy correction       ...      0.00094421 Eh       0.59 kcal/mol
-----------------------------------------------------------------------
Total Enthalpy                    ...    -40.11989871 Eh

-------
ENTROPY
-------

The entropy contributions are T*S = T*(S(el)+S(vib)+S(rot)+S(trans)
     S(el)   - electronic entropy
     S(vib)  - vibrational entropy
     S(rot)  - rotational entropy
     S(trans)- translational entropy
The entropies will be listed as mutliplied by the temperature to get
units of energy

Electronic entropy                ...      0.00000000 Eh      0.00 kcal/mol
Vibrational entropy               ...      0.00002317 Eh      0.01 kcal/mol
Rotational entropy                ...      0.00611722 Eh      3.84 kcal/mol
Translational entropy             ...      0.01627961 Eh     10.22 kcal/mol
-----------------------------------------------------------------------
Final entropy term                ...      0.02242000 Eh     14.07 kcal/mol

CAUTION: The rotational entropy is not quite correctly treated here
         because it includes a symmetry number that is not yet correctly
         implemented in ORCA!
For a nonlinear molecule the correct rotational entropy is:
    S(rot) = R*(ln(qrot/sn)+1.5)
    R    = 8.31441 J/mol/K = 1.987191683e-3 kcal/mol/K
    qrot =  435.9290831
    sn is the rotational symmetry number. We have assumed 3 here
       if it is different for your molecule then you should correct
       the printed rotational entropy by manually evaluating the equation
       as given above

For convenience we print out the resulting values for sn=1 - 12:
 sn= 1  qrot/sn=     435.9291 T*S(rot)=     4.49 kcal/mol T*S(tot)=    14.72 kcal/mol
 sn= 2  qrot/sn=     217.9645 T*S(rot)=     4.08 kcal/mol T*S(tot)=    14.31 kcal/mol
 sn= 3  qrot/sn=     145.3097 T*S(rot)=     3.84 kcal/mol T*S(tot)=    14.07 kcal/mol
 sn= 4  qrot/sn=     108.9823 T*S(rot)=     3.67 kcal/mol T*S(tot)=    13.90 kcal/mol
 sn= 5  qrot/sn=      87.1858 T*S(rot)=     3.54 kcal/mol T*S(tot)=    13.77 kcal/mol
 sn= 6  qrot/sn=      72.6548 T*S(rot)=     3.43 kcal/mol T*S(tot)=    13.66 kcal/mol
 sn= 7  qrot/sn=      62.2756 T*S(rot)=     3.34 kcal/mol T*S(tot)=    13.57 kcal/mol
 sn= 8  qrot/sn=      54.4911 T*S(rot)=     3.26 kcal/mol T*S(tot)=    13.49 kcal/mol
 sn= 9  qrot/sn=      48.4366 T*S(rot)=     3.19 kcal/mol T*S(tot)=    13.42 kcal/mol
 sn=10  qrot/sn=      43.5929 T*S(rot)=     3.13 kcal/mol T*S(tot)=    13.36 kcal/mol
 sn=11  qrot/sn=      39.6299 T*S(rot)=     3.07 kcal/mol T*S(tot)=    13.30 kcal/mol
 sn=12  qrot/sn=      36.3274 T*S(rot)=     3.02 kcal/mol T*S(tot)=    13.25 kcal/mol

-------------------
GIBBS FREE ENTHALPY
-------------------

The Gibbs free enthalpy is G = H - T*S

Total enthalpy                    ...    -40.11989871 Eh
Total entropy correction          ...     -0.02242000 Eh    -14.07 kcal/mol
-----------------------------------------------------------------------
Final Gibbs free enthalpy         ...    -40.14231871 Eh

For completeness - the Gibbs free enthalpy minus the electronic energy
G-E(el)                           ...      0.02870750 Eh     18.01 kcal/mol

                             ****ORCA TERMINATED NORMALLY****
TOTAL RUN TIME: 0 days 0 hours 1 minutes 24 seconds 923 msec
