                         Program Version 3.0.2 -  RELEASE  -
|  1> ! RHF DZ LARGEPRINT PRINTBASIS PRINTGAP ALLPOP
|  2>
|  3> * xyz 0 1
|  4> Li      -2.1217875114      1.5983770605      0.0011583114
|  5> H       -0.7878755679      1.5789122137      0.0000000000
|  6> *
|  7>
|  8>                          ****END OF INPUT****

CARTESIAN COORDINATES (ANGSTROEM)
---------------------------------
  Li    -2.121788    1.598377    0.001158
  H     -0.787876    1.578912    0.000000

 Total Charge           Charge          ....    0
 Multiplicity           Mult            ....    1
 Number of Electrons    NEL             ....    4
 Basis Dimension        Dim             ....    6

ORBITAL ENERGIES
----------------

  NO   OCC          E(Eh)            E(eV)
   0   2.0000      -2.458625       -66.9026
   1   2.0000      -0.308477        -8.3941
   2   0.0000       0.046267         1.2590
   3   0.0000       0.794147        21.6098
   4   0.0000       1.396598        38.0034
   5   0.0000      10.207285       277.7543
------------------
MOLECULAR ORBITALS
------------------
                      0         1         2         3         4         5
                  -2.45862  -0.30848   0.04627   0.79415   1.39660  10.20728
                   2.00000   2.00000   0.00000   0.00000   0.00000   0.00000
                  --------  --------  --------  --------  --------  --------
  0Li  1s         0.392635  0.057259 -0.030422  0.008114 -0.184285  1.602784
  0Li  2s         0.451728  0.100315 -0.041218  0.144730 -1.279344 -2.368439
  0Li  3s         0.279028  0.075364 -0.071173 -0.312657  1.813384  1.196491
  0Li  4s         0.005554 -0.212455  1.352648 -0.435758 -0.384982 -0.127163
  1H   1s         0.005814 -0.419962 -0.115600 -1.350547 -0.236827 -0.045425
  1H   2s        -0.001630 -0.547154 -0.853461  1.591419  0.090184 -0.007835

MULLIKEN ATOMIC CHARGES
-----------------------
   0 Li:    0.725025
   1 H :   -0.725025
Sum of atomic charges:    0.0000000

LOEWDIN ATOMIC CHARGES
----------------------
   0 Li:    0.645135
   1 H :   -0.645135

  Mayer bond orders larger than 0.1
B(  0-Li,  1-H ) :   0.4715

FINAL SINGLE POINT ENERGY        -7.953290473273

DIPOLE MOMENT
-------------
                                X             Y             Z
Electronic contribution:     -3.47415       0.05070       0.00302
Nuclear contribution   :      1.24213      -0.01813      -0.00108
                        -----------------------------------------
Total Dipole Moment    :     -2.23202       0.03257       0.00194
                        -----------------------------------------
Magnitude (a.u.)       :      2.23226
Magnitude (Debye)      :      5.67395

                             ****ORCA TERMINATED NORMALLY****
TOTAL RUN TIME: 0 days 0 hours 0 minutes 2 seconds 466 msec
