User input:
--------------------------------------------------------------
$molecule
READ
$end

$rem
MEM_TOTAL 512
MEM_STATIC 64

JOBTYPE OPT
GEOM_OPT_MAX_CYCLES 100
!GEOM_OPT_SYMFLAG 0
GEOM_OPT_PRINT 2

SYMMETRY FALSE

!BP86
EXCHANGE B
CORRELATION P86

BASIS GEN
PURECART 1111

SCF_GUESS READ
DIIS_RESTART FALSE
CEP_PARTIAL_FOCK_TIME 1000000

!BLAS3_DFT TRUE
!INCFOCK FALSE
!FAST_XC TRUE
!VARTHRESH 3
XC_GRID 1
!XC_SMART_GRID TRUE
MAX_SCF_CYCLES 100

PRINT_ORBITALS FALSE
SCF_PRINT 1
SCF_FINAL_PRINT 1
POP_MULLIKEN 0
NBO 1

$end

$nbo
{ cmo dipole nbbp nlmo mulorb }
$end

!Def2-SVP
$basis
H     0
S   3   1.00
     13.0107010              0.19682158E-01
      1.9622572              0.13796524
      0.44453796             0.47831935
S   1   1.00
      0.12194962             1.0000000
P   1   1.00
      0.8000000              1.0000000
****
B     0
S   5   1.00
    839.31830086            -0.55929201074E-02
    126.26464843            -0.41565520771E-01
     28.620600763           -0.18299816983
      7.8793722710          -0.46540391866
      2.4088857172          -0.44173884791
S   1   1.00
      0.25105109036          1.0000000
S   1   1.00
      0.83648866069E-01            1.0000000
P   3   1.00
      6.0332223619          -0.35603672456E-01
      1.2499157866          -0.19895775769
      0.33871676350         -0.50850202618
P   1   1.00
      0.96415632351E-01            1.0000000
D   1   1.00
      0.5000000              1.0000000
****
C     0
S   5   1.00
   1238.4016938              0.54568832082E-02
    186.29004992             0.40638409211E-01
     42.251176346            0.18025593888
     11.676557932            0.46315121755
      3.5930506482           0.44087173314
S   1   1.00
      0.40245147363          1.0000000
S   1   1.00
      0.13090182668          1.0000000
P   3   1.00
      9.4680970621           0.38387871728E-01
      2.0103545142           0.21117025112
      0.54771004707          0.51328172114
P   1   1.00
      0.15268613795          1.0000000
D   1   1.00
      0.8000000              1.0000000
****
N     0
S   5   1.00
   1712.8415853             -0.53934125305E-02
    257.64812677            -0.40221581118E-01
     58.458245853           -0.17931144990
     16.198367905           -0.46376317823
      5.0052600809          -0.44171422662
S   1   1.00
      0.58731856571          1.0000000
S   1   1.00
      0.18764592253          1.0000000
P   3   1.00
     13.571470233           -0.40072398852E-01
      2.9257372874          -0.21807045028
      0.79927750754         -0.51294466049
P   1   1.00
      0.21954348034          1.0000000
D   1   1.00
      1.0000000              1.0000000
****
O     0
S   5   1.00
   2266.1767785             -0.53431809926E-02
    340.87010191            -0.39890039230E-01
     77.363135167           -0.17853911985
     21.479644940           -0.46427684959
      6.6589433124          -0.44309745172
S   1   1.00
      0.80975975668          1.0000000
S   1   1.00
      0.25530772234          1.0000000
P   3   1.00
     17.721504317            0.43394573193E-01
      3.8635505440           0.23094120765
      1.0480920883           0.51375311064
P   1   1.00
      0.27641544411          1.0000000
D   1   1.00
      1.2000000              1.0000000
****
F     0
S   5   1.00
   2894.8325990             -0.53408255515E-02
    435.41939120            -0.39904258866E-01
     98.843328866           -0.17912768038
     27.485198001           -0.46758090825
      8.5405498171          -0.44653131020
S   1   1.00
      1.0654578038           1.0000000
S   1   1.00
      0.33247346748          1.0000000
P   3   1.00
     22.696633924           -0.45212874436E-01
      4.9872339257          -0.23754317067
      1.3491613954          -0.51287353587
P   1   1.00
      0.34829881977          1.0000000
D   1   1.00
      1.4000000              1.0000000
****
Al     0
S   5   1.00
   5887.5727030              0.13483347987E-02
    885.61225996             0.10071576809E-01
    201.13604899             0.45132454056E-01
     56.284974674            0.11461268043
     17.229551243            0.10159608943
S   3   1.00
     29.340249922            0.69347454208E-01
      3.0439630420          -0.42528117679
      1.1285539518          -0.41449832210
S   1   1.00
      0.14234175160          1.0000000
S   1   1.00
      0.54400192313E-01            1.0000000
P   5   1.00
    145.11918809             0.63963373134E-02
     33.717894833            0.44189359965E-01
     10.369863083            0.15581575993
      3.5135616036           0.28635286951
      1.1980050273           0.22921423248
P   1   1.00
      0.26583005913          1.0000000
P   1   1.00
      0.71003361994E-01            1.0000000
D   1   1.00
      0.3000000              1.0000000
****
Si     0
S   5   1.00
   6903.7118686              0.13373962995E-02
   1038.4346419              0.99966546241E-02
    235.87581480             0.44910165101E-01
     66.069385169            0.11463638540
     20.247945761            0.10280063858
S   3   1.00
     34.353481730            0.70837285010E-01
      3.6370788192          -0.43028836252
      1.4002048599          -0.41382774969
S   1   1.00
      0.20484414805          1.0000000
S   1   1.00
      0.77994095468E-01            1.0000000
P   5   1.00
    179.83907373             0.61916656462E-02
     41.907258846            0.43399431982E-01
     12.955294367            0.15632019351
      4.4383267393           0.29419996982
      1.5462247904           0.23536823814
P   1   1.00
      0.35607612302          1.0000000
P   1   1.00
      0.10008513762          1.0000000
D   1   1.00
      0.3500000              1.0000000
****
P     0
S   5   1.00
   8002.4795106              0.57503489302E-02
   1203.6813590              0.43007628959E-01
    273.44227031             0.19363986252
     76.655541517            0.49651693399
     23.516927435            0.44983262479
S   3   1.00
     39.791683439            0.95188129789E-01
      4.2770343323          -0.57649840368
      1.6940256888          -0.54239583865
S   1   1.00
      0.27567674644          1.0000000
S   1   1.00
      0.10495590099          1.0000000
P   5   1.00
    219.50755823             0.92100565257E-02
     51.274155030            0.65409765745E-01
     15.921595892            0.24033730279
      5.5069913481           0.46318321788
      1.9537719426           0.37392563382
P   1   1.00
      0.47803397932          1.0000000
P   1   1.00
      0.13657952621          1.0000000
D   1   1.00
      0.4500000              1.0000000
****
S     0
S   5   1.00
   9184.9303010             -0.22294387756E-02
   1381.5105503             -0.16683029937E-01
    313.87147580            -0.75262436116E-01
     88.053870623           -0.19376827038
     27.039914905           -0.17718020803
S   3   1.00
     45.648731303           -0.10736062573
      4.9664522326           0.65066293018
      2.0116242047           0.59712155354
S   1   1.00
      0.35661077013          1.0000000
S   1   1.00
      0.13507221477          1.0000000
P   5   1.00
    261.98233439            -0.92729929822E-02
     61.306894736           -0.66547669241E-01
     19.103729887           -0.24828595903
      6.6567720378          -0.48703847402
      2.3959635161          -0.39337850312
P   1   1.00
      0.61776161679          1.0000000
P   1   1.00
      0.16993376871          1.0000000
D   1   1.00
      0.5500000              1.0000000
****
Cl     0
S   5   1.00
  10449.8275660              0.19708362484E-02
   1571.7365221              0.14754727977E-01
    357.12065523             0.66679112875E-01
    100.25185935             0.17228924084
     30.812727554            0.15883786100
S   3   1.00
     51.923789434           -0.10009298909
      5.7045760975           0.60841752753
      2.3508376809           0.54352153355
S   1   1.00
      0.44605124672          1.0000000
S   1   1.00
      0.16848856190          1.0000000
P   5   1.00
    307.66790569            -0.87801484118E-02
     72.102015515           -0.63563355471E-01
     22.532680262           -0.24016428276
      7.8991765444          -0.47798866557
      2.8767268321          -0.38515850005
P   1   1.00
      0.77459363955          1.0000000
P   1   1.00
      0.21037699698          1.0000000
D   1   1.00
      0.6500000              1.0000000
****
Se     0

    7    -823.6708338240      6.12E-09 Convergence criterion met
   14    -823.6970410797      4.37E-09 Convergence criterion met
   13    -823.6997425409      7.17E-09 Convergence criterion met
   12    -823.6998857572      3.49E-09 Convergence criterion met
   10    -823.6998965543      7.72E-09 Convergence criterion met

       Standard Nuclear Orientation (Angstroms)
    I     Atom         X            Y            Z
 ----------------------------------------------------
    1      N       3.155614     0.989162    -0.001353
    2      H       3.373031     1.983902    -0.000779
    3      C       4.099753    -0.032757    -0.000089
    4      C       3.460867    -1.277822     0.000641
    5      C       2.066694    -0.979428     0.001143
    6      N       0.803491    -1.553774     0.000743
    7      H       0.595031    -2.550862     0.001319
    8      C      -0.137194    -0.533435    -0.000705
    9      C      -1.584499    -0.559014    -0.000199
   10      C      -2.621440    -1.657703    -0.000153
   11      C      -3.926916    -0.889511    -0.000163
   12      C      -3.662912     0.455284     0.000008
   13      C      -2.220101     0.681047     0.000036
   14      Si     -0.878565     2.014521    -0.000088
   15      H      -0.903419     2.908366    -1.213527
   16      H      -0.901670     2.906892     1.214473
   17      C       0.502738     0.740749    -0.001348
   18      C       1.891209     0.432054     0.000081
   19      H       5.171400     0.198016     0.000153
   20      H       3.961758    -2.252352     0.001133
   21      H      -2.527014    -2.324615    -0.889317
   22      H      -2.527019    -2.324801     0.888877
   23      H      -4.917562    -1.365488    -0.000091
   24      H      -4.423518     1.250764     0.000127
 ----------------------------------------------------

    9    -823.6998971968      8.05E-09 Convergence criterion met
 Final energy is   -823.699897196768
 **  OPTIMIZATION CONVERGED  **

                    Orbital Energies (a.u.)
 --------------------------------------------------------------

 Alpha MOs
 -- Occupied --
-65.449 -14.062 -14.058  -9.945  -9.938  -9.933  -9.932  -9.930
 -9.923  -9.911  -9.907  -9.907  -9.895  -9.893  -5.057  -3.472
 -3.472  -3.471  -0.897  -0.865  -0.775  -0.703  -0.691  -0.662
 -0.630  -0.599  -0.551  -0.538  -0.524  -0.506  -0.478  -0.464
 -0.438  -0.416  -0.412  -0.399  -0.383  -0.380  -0.367  -0.344
 -0.333  -0.332  -0.328  -0.312  -0.307  -0.284  -0.273  -0.265
 -0.241  -0.208  -0.189  -0.147

                    Cartesian Multipole Moments
 -----------------------------------------------------------------
    Charge (ESU x 10^10)
                 0.0000
    Dipole Moment (Debye)
         X       1.3888      Y      -1.3609      Z       0.0025
       Tot       1.9444
    Quadrupole Moments (Debye-Ang)
        XX     -80.3683     XY       6.9288     YY     -75.5993
        XZ       0.0024     YZ      -0.0028     ZZ     -94.3880
    Octapole Moments (Debye-Ang^2)
       XXX      47.5706    XXY      15.5385    XYY      17.3044
       YYY     -30.6632    XXZ       0.0181    XYZ      -0.0085
       YYZ       0.0218    XZZ       0.6622    YZZ      -5.4559
       ZZZ       0.0184
    Hexadecapole Moments (Debye-Ang^3)
      XXXX   -3182.3560   XXXY     106.9818   XXYY    -645.9975
      XYYY      53.5661   YYYY    -904.2249   XXXZ      -0.0091
      XXYZ       0.0160   XYYZ      -0.0124   YYYZ       0.0563
      XXZZ    -661.7251   XYZZ      19.0283   YYZZ    -193.7194

 Total job time:  2489.40s(wall), 2339.48s(cpu)
        *  Thank you very much for using Q-Chem.  Have a nice day.  *
