 Gaussian 03, Revision C.02,
 Gaussian 03:  AM64L-G03RevC.02 12-Jun-2004

 ----------------------------------------------
 # NoSymm opt freq=noraman b3lyp/6-31g(d) 5d 7f
 ----------------------------------------------

 ----------------
 SMIF)2Cr-quintet
 ----------------
 Symbolic Z-matrix:
 Charge =  0 Multiplicity = 5

 SCF Done:  E(UB+HF-LYP) =  -2299.56452727     A.U. after   29 cycles
 SCF Done:  E(UB+HF-LYP) =  -2299.57704954     A.U. after   15 cycles
 SCF Done:  E(UB+HF-LYP) =  -2299.57865702     A.U. after   15 cycles
 SCF Done:  E(UB+HF-LYP) =  -2299.57878951     A.U. after   13 cycles
 SCF Done:  E(UB+HF-LYP) =  -2299.57884709     A.U. after   13 cycles
 SCF Done:  E(UB+HF-LYP) =  -2299.57885634     A.U. after   12 cycles
 SCF Done:  E(UB+HF-LYP) =  -2299.57885884     A.U. after   11 cycles
 SCF Done:  E(UB+HF-LYP) =  -2299.57886019     A.U. after   11 cycles
 SCF Done:  E(UB+HF-LYP) =  -2299.57886075     A.U. after   10 cycles
 SCF Done:  E(UB+HF-LYP) =  -2299.57886090     A.U. after    9 cycles
 Optimization completed.
    -- Stationary point found.
 Normal termination of Gaussian 03 at Thu Apr  3 00:36:28 2008.

 ------------------------------------------------------------------
 #N Geom=AllCheck Guess=Read SCRF=Check GenChk UB3LYP/6-31G(d) Freq
 ------------------------------------------------------------------

 SMIF)2Cr-quintet
 ----------------
 Redundant internal coordinates taken from checkpoint file:
 cr-smif-quintet.chk
 Charge =  0 Multiplicity = 5

                         Z-Matrix orientation:
 ---------------------------------------------------------------------
 Center     Atomic     Atomic              Coordinates (Angstroms)
 Number     Number      Type              X           Y           Z
 ---------------------------------------------------------------------
    1         24             0        0.000000    0.000000    0.000000
    2          7             0        1.422081   -1.458489   -0.361097
    3          6             0        3.223354   -3.415984   -1.207778
    4          6             0        1.620383   -1.671529   -1.721596
    5          6             0        2.098078   -2.206813    0.532319
    6          6             0        3.003992   -3.186726    0.171417
    7          6             0        2.538966   -2.669830   -2.141650
    8          1             0        1.889649   -1.987615    1.575360
    9          1             0        3.529063   -3.752391    0.932764
   10          1             0        2.684806   -2.831603   -3.205890
   11          1             0        3.926265   -4.179731   -1.529803
   12          7             0       -1.422081   -1.458489    0.361097
   13          6             0       -3.223354   -3.415984    1.207778
   14          6             0       -1.620383   -1.671529    1.721596
   15          6             0       -2.098078   -2.206813   -0.532320
   16          6             0       -3.003992   -3.186726   -0.171417
   17          6             0       -2.538966   -2.669830    2.141650
   18          1             0       -1.889649   -1.987615   -1.575360
   19          1             0       -3.529062   -3.752391   -0.932764
   20          1             0       -2.684807   -2.831603    3.205890
   21          1             0       -3.926265   -4.179731    1.529802
   22          7             0       -1.422081    1.458489   -0.361097
   23          6             0       -3.223354    3.415984   -1.207778
   24          6             0       -2.098078    2.206813    0.532319
   25          6             0       -1.620383    1.671529   -1.721596
   26          6             0       -2.538966    2.669830   -2.141650
   27          6             0       -3.003992    3.186726    0.171417
   28          1             0       -1.889649    1.987615    1.575360
   29          1             0       -2.684806    2.831603   -3.205890
   30          1             0       -3.529063    3.752391    0.932764
   31          1             0       -3.926265    4.179731   -1.529803
   32          7             0        1.422081    1.458489    0.361097
   33          6             0        3.223354    3.415984    1.207778
   34          6             0        1.620383    1.671529    1.721596
   35          6             0        2.098078    2.206813   -0.532320
   36          6             0        3.003992    3.186726   -0.171417
   37          6             0        2.538966    2.669830    2.141650
   38          1             0        1.889649    1.987615   -1.575360
   39          1             0        3.529062    3.752391   -0.932764
   40          1             0        2.684807    2.831603    3.205890
   41          1             0        3.926265    4.179731    1.529802
   42          7             0        0.000000    0.000000    2.030320
   43          7             0        0.000000    0.000000   -2.030320
   44          6             0        0.860126   -0.863929   -2.597890
   45          1             0        0.949048   -0.948955   -3.679127
   46          6             0       -0.860126    0.863929   -2.597890
   47          1             0       -0.949048    0.948955   -3.679127
   48          6             0        0.860126    0.863929    2.597890
   49          1             0        0.949048    0.948955    3.679127
   50          6             0       -0.860126   -0.863929    2.597890
   51          1             0       -0.949048   -0.948955    3.679127
 ---------------------------------------------------------------------

 SCF Done:  E(UB+HF-LYP) =  -2299.57886090     A.U. after    1 cycles

 Alpha  occ. eigenvalues -- -215.75317 -24.77449 -21.06264 -21.06217 -21.06180
 Alpha  occ. eigenvalues --  -14.34418 -14.34417 -14.33648 -14.33648 -14.33647
 Alpha  occ. eigenvalues --  -14.33646 -10.21595 -10.21594 -10.21593 -10.21593
 Alpha  occ. eigenvalues --  -10.21305 -10.21305 -10.21304 -10.21304 -10.19046
 Alpha  occ. eigenvalues --  -10.19045 -10.19045 -10.19045 -10.18761 -10.18761
 Alpha  occ. eigenvalues --  -10.18761 -10.18761 -10.17932 -10.17932 -10.17932
 Alpha  occ. eigenvalues --  -10.17932 -10.17122 -10.17122 -10.17122 -10.17122
 Alpha  occ. eigenvalues --   -2.95603  -1.90531  -1.90191  -1.90164  -0.95239
 Alpha  occ. eigenvalues --   -0.94499  -0.93466  -0.93395  -0.90889  -0.90853
 Alpha  occ. eigenvalues --   -0.79083  -0.78985  -0.78972  -0.78858  -0.78470
 Alpha  occ. eigenvalues --   -0.78453  -0.75633  -0.75626  -0.69669  -0.69655
 Alpha  occ. eigenvalues --   -0.64436  -0.64206  -0.62236  -0.62214  -0.62201
 Alpha  occ. eigenvalues --   -0.62036  -0.59627  -0.59619  -0.55767  -0.55765
 Alpha  occ. eigenvalues --   -0.52982  -0.51794  -0.50520  -0.50498  -0.50066
 Alpha  occ. eigenvalues --   -0.50059  -0.47391  -0.47192  -0.45967  -0.45794
 Alpha  occ. eigenvalues --   -0.45766  -0.45616  -0.43753  -0.43691  -0.43194
 Alpha  occ. eigenvalues --   -0.43123  -0.41946  -0.41841  -0.41778  -0.41385
 Alpha  occ. eigenvalues --   -0.40872  -0.40709  -0.40665  -0.39084  -0.39038
 Alpha  occ. eigenvalues --   -0.38617  -0.36566  -0.36466  -0.36187  -0.36165
 Alpha  occ. eigenvalues --   -0.35726  -0.35639  -0.33606  -0.32758  -0.32040
 Alpha  occ. eigenvalues --   -0.30671  -0.30044  -0.29991  -0.29079  -0.28522
 Alpha  occ. eigenvalues --   -0.28119  -0.27971  -0.27731  -0.27240  -0.25797
 Alpha  occ. eigenvalues --   -0.25659  -0.24324  -0.24314  -0.24274  -0.15773
 Alpha  occ. eigenvalues --   -0.15598  -0.08825
 Alpha virt. eigenvalues --   -0.06319  -0.01552  -0.01390  -0.01186  -0.00899
 Alpha virt. eigenvalues --   -0.00745  -0.00700   0.03128   0.03300   0.06206
 Alpha virt. eigenvalues --    0.06326   0.07149   0.07921   0.09289   0.09351

  Beta  occ. eigenvalues -- -215.75261 -24.72986 -21.02510 -21.02506 -21.02412
  Beta  occ. eigenvalues --  -14.34271 -14.34270 -14.33587 -14.33587 -14.33586
  Beta  occ. eigenvalues --  -14.33585 -10.21489 -10.21488 -10.21487 -10.21487
  Beta  occ. eigenvalues --  -10.21298 -10.21298 -10.21298 -10.21297 -10.18989
  Beta  occ. eigenvalues --  -10.18989 -10.18989 -10.18989 -10.18689 -10.18689
  Beta  occ. eigenvalues --  -10.18688 -10.18688 -10.17952 -10.17951 -10.17951
  Beta  occ. eigenvalues --  -10.17951 -10.17057 -10.17057 -10.17057 -10.17056
  Beta  occ. eigenvalues --   -2.82744  -1.76884  -1.76736  -1.76517  -0.94972
  Beta  occ. eigenvalues --   -0.94237  -0.93271  -0.93203  -0.90611  -0.90575
  Beta  occ. eigenvalues --   -0.78915  -0.78804  -0.78788  -0.78691  -0.78254
  Beta  occ. eigenvalues --   -0.78234  -0.75440  -0.75435  -0.69506  -0.69496
  Beta  occ. eigenvalues --   -0.64129  -0.63906  -0.62180  -0.62113  -0.62099
  Beta  occ. eigenvalues --   -0.61979  -0.59460  -0.59454  -0.55582  -0.55567
  Beta  occ. eigenvalues --   -0.52864  -0.51737  -0.50465  -0.50437  -0.49883
  Beta  occ. eigenvalues --   -0.49877  -0.47275  -0.47095  -0.45857  -0.45688
  Beta  occ. eigenvalues --   -0.45666  -0.45543  -0.43639  -0.43593  -0.43159
  Beta  occ. eigenvalues --   -0.43064  -0.41574  -0.41564  -0.41501  -0.40540
  Beta  occ. eigenvalues --   -0.40410  -0.40407  -0.40345  -0.38856  -0.38850
  Beta  occ. eigenvalues --   -0.38080  -0.36437  -0.36362  -0.35800  -0.35728
  Beta  occ. eigenvalues --   -0.35009  -0.34828  -0.33066  -0.31958  -0.31178
  Beta  occ. eigenvalues --   -0.29646  -0.29504  -0.28928  -0.28803  -0.27826
  Beta  occ. eigenvalues --   -0.27155  -0.27099  -0.27062  -0.26739  -0.24284
  Beta  occ. eigenvalues --   -0.24225  -0.15720  -0.14794
  Beta virt. eigenvalues --   -0.06243  -0.06222  -0.04249  -0.00866  -0.00811
  Beta virt. eigenvalues --   -0.00721  -0.00399  -0.00324   0.02740   0.03547
  Beta virt. eigenvalues --    0.03883   0.04006   0.04117   0.07448   0.07477

 Mulliken atomic charges:
              1
     1  Cr   1.123404
     2  N   -0.565821
     3  C   -0.119836
     4  C    0.324188
     5  C    0.048225
     6  C   -0.163292
     7  C   -0.172878
     8  H    0.167406
     9  H    0.127417
    10  H    0.128166
    11  H    0.132466
    12  N   -0.565821
    13  C   -0.119836
    14  C    0.324188
    15  C    0.048225
    16  C   -0.163292
    17  C   -0.172878
    18  H    0.167406
    19  H    0.127417
    20  H    0.128166
    21  H    0.132466
    22  N   -0.565821
    23  C   -0.119836
    24  C    0.048225
    25  C    0.324188
    26  C   -0.172878
    27  C   -0.163292
    28  H    0.167406
    29  H    0.128166
    30  H    0.127417
    31  H    0.132466
    32  N   -0.565821
    33  C   -0.119836
    34  C    0.324188
    35  C    0.048225
    36  C   -0.163292
    37  C   -0.172878
    38  H    0.167406
    39  H    0.127417
    40  H    0.128166
    41  H    0.132466
    42  N   -0.494129
    43  N   -0.494129
    44  C   -0.063916
    45  H    0.124089
    46  C   -0.063916
    47  H    0.124089
    48  C   -0.063916
    49  H    0.124089
    50  C   -0.063916
    51  H    0.124089
 Sum of Mulliken charges=   0.00000

 Dipole moment (field-independent basis, Debye):
    X=     0.0000    Y=     0.0000    Z=     0.0000  Tot=     0.0000
 Quadrupole moment (field-independent basis, Debye-Ang):
   XX=  -178.6506   YY=  -175.6122   ZZ=  -166.0612
   XY=     0.0000   XZ=     0.0000   YZ=     0.0000

  Exact polarizability: 461.894   0.001 498.131   0.000   0.000 471.339
 Approx polarizability: 898.024   0.000 972.835   0.000   0.0001067.436

                     1                      2                      3
                     A                      A                      A
 Frequencies --    31.5331                44.1477                44.4825
 Red. masses --     5.5772                 5.0427                 5.0464
 Frc consts  --     0.0033                 0.0058                 0.0059
 IR Inten    --     0.0000                 0.8464                 0.2550

                     4                      5                      6
                     A                      A                      A
 Frequencies --    46.1108                47.1112                78.0700
 Red. masses --     4.6465                 4.8138                 3.8826
 Frc consts  --     0.0058                 0.0063                 0.0139
 IR Inten    --     0.1480                 0.1717                 0.0121

                     7                      8                      9
                     A                      A                      A
 Frequencies --    86.9122                94.0612               134.1141
 Red. masses --     3.9888                 5.9923                 5.4912
 Frc consts  --     0.0178                 0.0312                 0.0582
 IR Inten    --     0.0000                 0.0000                 0.5328

                    10                     11                     12
                     A                      A                      A
 Frequencies --   135.8492               140.7220               145.2742
 Red. masses --     5.6906                 5.8131                 5.0940
 Frc consts  --     0.0619                 0.0678                 0.0633
 IR Inten    --     9.7876                 1.1760                 0.2842

                    13                     14                     15
                     A                      A                      A
 Frequencies --   191.5111               209.8090               229.7416
 Red. masses --     5.3356                 6.2048                 5.6281
 Frc consts  --     0.1153                 0.1609                 0.1750
 IR Inten    --     0.0000                 0.0000                 0.6684

                    16                     17                     18
                     A                      A                      A
 Frequencies --   231.1005               246.5291               250.2844
 Red. masses --     5.7475                 5.9880                 5.8101
 Frc consts  --     0.1809                 0.2144                 0.2144
 IR Inten    --     0.0001                 0.2051                 1.4816

                    19                     20                     21
                     A                      A                      A
 Frequencies --   287.2707               291.3474               292.4383
 Red. masses --     5.7613                14.2160                 5.3801
 Frc consts  --     0.2801                 0.7110                 0.2711
 IR Inten    --    36.8396                 1.5030                10.1906

                    22                     23                     24
                     A                      A                      A
 Frequencies --   307.1877               326.2453               332.1722
 Red. masses --     4.3127                 6.9379                 6.0826
 Frc consts  --     0.2398                 0.4351                 0.3954
 IR Inten    --     0.0000                 0.4874                 0.0000

                    25                     26                     27
                     A                      A                      A
 Frequencies --   342.1207               394.8439               394.9073
 Red. masses --     4.2144                 7.0339                 3.8388
 Frc consts  --     0.2906                 0.6461                 0.3527
 IR Inten    --     1.9674                 7.5676                 8.0592

                    28                     29                     30
                     A                      A                      A
 Frequencies --   412.7853               420.1274               435.2583
 Red. masses --     3.4231                 3.6070                 3.6749
 Frc consts  --     0.3437                 0.3751                 0.4102
 IR Inten    --     1.9920                 0.0897                 0.0000

                    31                     32                     33
                     A                      A                      A
 Frequencies --   435.5707               483.1748               491.4351
 Red. masses --     3.9220                 8.5792                 5.6490
 Frc consts  --     0.4384                 1.1801                 0.8038
 IR Inten    --     2.6835               494.7282                 0.0000

                    34                     35                     36
                     A                      A                      A
 Frequencies --   505.3915               509.4057               518.9839
 Red. masses --     3.0185                 3.0849                 3.0766
 Frc consts  --     0.4543                 0.4716                 0.4882
 IR Inten    --     8.6028                12.2883                 0.0000

                    37                     38                     39
                     A                      A                      A
 Frequencies --   521.3627               521.7201               522.5682
 Red. masses --     5.5368                 3.0133                 6.2332
 Frc consts  --     0.8867                 0.4832                 1.0029
 IR Inten    --     1.7837                 0.2251                 0.2552

                    40                     41                     42
                     A                      A                      A
 Frequencies --   620.8983               645.6026               661.7627
 Red. masses --     6.7591                 6.3306                 6.9092
 Frc consts  --     1.5353                 1.5546                 1.7827
 IR Inten    --   649.4461                 0.0000                 0.3269

                    43                     44                     45
                     A                      A                      A
 Frequencies --   664.5635               674.6700               679.3278
 Red. masses --     6.9763                 6.1101                 5.9335
 Frc consts  --     1.8153                 1.6386                 1.6133
 IR Inten    --     0.7598                 0.0000                 1.3029

                    46                     47                     48
                     A                      A                      A
 Frequencies --   682.5653               683.6642               704.8003
 Red. masses --     6.2935                 6.3348                 1.6015
 Frc consts  --     1.7276                 1.7445                 0.4687
 IR Inten    --    10.5330                 9.1462                32.5006

                    49                     50                     51
                     A                      A                      A
 Frequencies --   707.2142               715.2487               715.7582
 Red. masses --     1.4403                 3.6139                 3.8224
 Frc consts  --     0.4244                 1.0893                 1.1538
 IR Inten    --     0.0000                 1.1399                 0.8045

                    52                     53                     54
                     A                      A                      A
 Frequencies --   723.8599               733.8217               736.8244
 Red. masses --     6.1832                 1.9901                 2.3350
 Frc consts  --     1.9089                 0.6314                 0.7469
 IR Inten    --  1912.4133               120.8463                 0.0000

                    55                     56                     57
                     A                      A                      A
 Frequencies --   742.1189               744.5295               751.1678
 Red. masses --     1.2366                 1.2637                 1.4157
 Frc consts  --     0.4013                 0.4127                 0.4707
 IR Inten    --    29.1362                24.3367                25.4728

                    58                     59                     60
                     A                      A                      A
 Frequencies --   754.8593               764.9351               765.0261
 Red. masses --     1.4044                 1.6809                 1.6539
 Frc consts  --     0.4715                 0.5795                 0.5703
 IR Inten    --     0.0000                49.1111                46.3360

                    61                     62                     63
                     A                      A                      A
 Frequencies --   842.6609               844.2389               844.8515
 Red. masses --     1.3965                 1.4004                 1.4435
 Frc consts  --     0.5842                 0.5881                 0.6070
 IR Inten    --     0.0000                 0.0002                 8.4191

                    64                     65                     66
                     A                      A                      A
 Frequencies --   845.0253               851.9785               852.0517
 Red. masses --     1.4250                 4.8728                 4.9994
 Frc consts  --     0.5995                 2.0840                 2.1385
 IR Inten    --    12.6020                32.0080                20.1693

                    67                     68                     69
                     A                      A                      A
 Frequencies --   898.3100               929.3259               947.5307
 Red. masses --     3.8367                 3.6769                 1.3425
 Frc consts  --     1.8242                 1.8710                 0.7102
 IR Inten    --     0.0000               407.1704                 0.0000

                    70                     71                     72
                     A                      A                      A
 Frequencies --   947.6896               948.4833               948.6290
 Red. masses --     1.3425                 1.3405                 1.3429
 Frc consts  --     0.7104                 0.7105                 0.7120
 IR Inten    --     0.0488                 0.0812                 0.6930

                    73                     74                     75
                     A                      A                      A
 Frequencies --   972.0334               972.1259               972.2644
 Red. masses --     1.2722                 1.2719                 1.2723
 Frc consts  --     0.7082                 0.7082                 0.7086
 IR Inten    --     0.0072                 0.7850                 0.0002

                    76                     77                     78
                     A                      A                      A
 Frequencies --   972.2655              1013.3166              1014.7218
 Red. masses --     1.2711                 6.8102                 6.8205
 Frc consts  --     0.7079                 4.1200                 4.1377
 IR Inten    --     0.0504               112.2461               120.4487

                    79                     80                     81
                     A                      A                      A
 Frequencies --  1027.4680              1052.2115              1052.3657
 Red. masses --     6.7884                 2.3277                 2.3223
 Frc consts  --     4.2223                 1.5184                 1.5153
 IR Inten    --     0.0000                16.6660                18.7803

                    82                     83                     84
                     A                      A                      A
 Frequencies --  1052.3807              1053.1549              1095.6453
 Red. masses --     2.3645                 2.3610                 4.3276
 Frc consts  --     1.5429                 1.5429                 3.0608
 IR Inten    --     2.0928                 0.0000               379.4554

                    85                     86                     87
                     A                      A                      A
 Frequencies --  1141.4782              1143.9726              1144.3683
 Red. masses --     1.6479                 1.5697                 1.5655
 Frc consts  --     1.2651                 1.2103                 1.2079
 IR Inten    --     0.0000                 0.1458                 0.1033

                    88                     89                     90
                     A                      A                      A
 Frequencies --  1151.0282              1183.7697              1183.8003
 Red. masses --     1.5233                 1.1207                 1.1211
 Frc consts  --     1.1891                 0.9253                 0.9257
 IR Inten    --    77.7781                60.8727                65.2778

                    91                     92                     93
                     A                      A                      A
 Frequencies --  1186.0719              1200.1785              1218.4548
 Red. masses --     1.1004                 1.3064                 1.5197
 Frc consts  --     0.9120                 1.1087                 1.3293
 IR Inten    --     0.0000                85.5288                81.9267

                    94                     95                     96
                     A                      A                      A
 Frequencies --  1219.5768              1225.6729              1244.0804
 Red. masses --     1.5097                 3.1533                 2.0110
 Frc consts  --     1.3230                 2.7910                 1.8338
 IR Inten    --    77.0467                 0.0000               139.5265

                    97                     98                     99
                     A                      A                      A
 Frequencies --  1283.3347              1312.5696              1314.2267
 Red. masses --     1.9180                 1.8098                 1.7891
 Frc consts  --     1.8611                 1.8371                 1.8206
 IR Inten    --     0.0000                14.0343                 9.6652

                   100                    101                    102
                     A                      A                      A
 Frequencies --  1320.5457              1328.7191              1332.0879
 Red. masses --     2.2677                 1.7335                 4.9222
 Frc consts  --     2.3299                 1.8032                 5.1461
 IR Inten    --   119.8088                 0.0000                31.3544

                   103                    104                    105
                     A                      A                      A
 Frequencies --  1332.1884              1336.1556              1337.9334
 Red. masses --     4.8355                 6.1045                 5.7364
 Frc consts  --     5.0561                 6.4212                 6.0501
 IR Inten    --    28.9495                22.7202                 0.0000

                   106                    107                    108
                     A                      A                      A
 Frequencies --  1368.9442              1368.9777              1403.1070
 Red. masses --     2.1819                 2.1523                 1.7828
 Frc consts  --     2.4091                 2.3766                 2.0679
 IR Inten    --     6.8569                 6.8014               516.1648

                   109                    110                    111
                     A                      A                      A
 Frequencies --  1443.9082              1447.0096              1472.1205
 Red. masses --     1.8610                 2.0371                 2.7384
 Frc consts  --     2.2860                 2.5131                 3.4964
 IR Inten    --     0.0000                 8.3790               511.8349

                   112                    113                    114
                     A                      A                      A
 Frequencies --  1472.7328              1480.7192              1481.7778
 Red. masses --     2.5869                 3.0565                 3.2051
 Frc consts  --     3.3058                 3.9484                 4.1462
 IR Inten    --   364.6927               729.0676               812.8436

                   115                    116                    117
                     A                      A                      A
 Frequencies --  1509.3439              1514.3219              1530.0816
 Red. masses --     2.1246                 2.1428                 3.2225
 Frc consts  --     2.8517                 2.8952                 4.4450
 IR Inten    --    12.6230                 0.0000                17.1706

                   118                    119                    120
                     A                      A                      A
 Frequencies --  1533.3986              1563.4427              1563.9804
 Red. masses --     3.3047                 5.6345                 4.2769
 Frc consts  --     4.5781                 8.1147                 6.1637
 IR Inten    --    43.5571                 0.0000                74.5232

                   121                    122                    123
                     A                      A                      A
 Frequencies --  1564.9611              1583.3990              1584.3925
 Red. masses --     4.3918                 4.2637                 4.1661
 Frc consts  --     6.3372                 6.2982                 6.1618
 IR Inten    --    53.4912                 4.3519                 0.0000

                   124                    125                    126
                     A                      A                      A
 Frequencies --  1630.8344              1638.8274              1638.9856
 Red. masses --     4.5832                 4.9024                 4.8033
 Frc consts  --     7.1820                 7.7576                 7.6023
 IR Inten    --    79.1184               128.8122                 0.0000

                   127                    128                    129
                     A                      A                      A
 Frequencies --  1639.4695              3172.6474              3172.6610
 Red. masses --     4.9655                 1.0893                 1.0893
 Frc consts  --     7.8635                 6.4601                 6.4602
 IR Inten    --   133.2763                 2.9214                 2.8709

                   130                    131                    132
                     A                      A                      A
 Frequencies --  3175.8702              3176.4653              3189.9130
 Red. masses --     1.0888                 1.0887                 1.0858
 Frc consts  --     6.4700                 6.4721                 6.5098
 IR Inten    --   109.1383                 0.0001                 7.7723

                   133                    134                    135
                     A                      A                      A
 Frequencies --  3189.9283              3190.1172              3190.2151
 Red. masses --     1.0858                 1.0860                 1.0861
 Frc consts  --     6.5100                 6.5115                 6.5126
 IR Inten    --     6.9066                10.2236                 0.0000

                   136                    137                    138
                     A                      A                      A
 Frequencies --  3206.4638              3206.6806              3206.6850
 Red. masses --     1.0911                 1.0916                 1.0916
 Frc consts  --     6.6093                 6.6133                 6.6132
 IR Inten    --    94.9673                31.9104                29.8146

                   139                    140                    141
                     A                      A                      A
 Frequencies --  3207.0125              3210.4659              3210.4845
 Red. masses --     1.0918                 1.0914                 1.0914
 Frc consts  --     6.6160                 6.6275                 6.6276
 IR Inten    --     0.0000                 3.0906                 3.9906

                   142                    143                    144
                     A                      A                      A
 Frequencies --  3210.5488              3210.7749              3231.6656
 Red. masses --     1.0916                 1.0912                 1.0965
 Frc consts  --     6.6292                 6.6279                 6.7473
 IR Inten    --    12.0714                 0.0000                28.0511

                   145                    146                    147
                     A                      A                      A
 Frequencies --  3231.6706              3231.7582              3231.9050
 Red. masses --     1.0965                 1.0966                 1.0966
 Frc consts  --     6.7473                 6.7483                 6.7484
 IR Inten    --    30.4562                 5.9697                 0.0000

 - Thermochemistry -
 -------------------
 Temperature   298.150 Kelvin.  Pressure   1.00000 Atm.
 Atom  1 has atomic number 24 and mass  51.94051

 Molecular mass:   444.11545 amu.
 Principal axes and moments of inertia in atomic units:
                           1         2         3
     EIGENVALUES --  ******************************
           X            0.00000   1.00000   0.00000
           Y            1.00000   0.00000   0.00000
           Z            0.00000   0.00000   1.00000
 This molecule is an asymmetric top.
 Rotational symmetry number  1.
 Warning -- assumption of classical behavior for rotation
           may cause significant error
 Rotational temperatures (Kelvin)      0.00836     0.00781     0.00610
 Rotational constants (GHZ):           0.17427     0.16278     0.12703
 Zero-point vibrational energy    1032296.6 (Joules/Mol)
                                  246.72480 (Kcal/Mol)
 Warning -- explicit consideration of  39 degrees of freedom as
           vibrations may cause significant error
 Vibrational temperatures:     45.37    63.52    64.00    66.34    67.78
          (Kelvin)            112.33   125.05   135.33   192.96   195.46
                              202.47   209.02   275.54   301.87   330.55
                              332.50   354.70   360.10   413.32   419.18
                              420.75   441.97   469.39   477.92   492.23
                              568.09   568.18   593.91   604.47   626.24
                              626.69   695.18   707.06   727.14   732.92
                              746.70   750.12   750.64   751.86   893.33
                              928.88   952.13   956.16   970.70   977.40
                              982.06   983.64  1014.05  1017.52  1029.08
                             1029.82  1041.47  1055.80  1060.12  1067.74
                             1071.21  1080.76  1086.07  1100.57  1100.70
                             1212.40  1214.67  1215.55  1215.80  1225.81
                             1225.91  1292.47  1337.09  1363.28  1363.51
                             1364.65  1364.86  1398.54  1398.67  1398.87
                             1398.87  1457.93  1459.96  1478.30  1513.90
                             1514.12  1514.14  1515.25  1576.39  1642.33
                             1645.92  1646.49  1656.07  1703.18  1703.22
                             1706.49  1726.79  1753.08  1754.70  1763.47
                             1789.95  1846.43  1888.49  1890.88  1899.97
                             1911.73  1916.58  1916.72  1922.43  1924.99
                             1969.60  1969.65  2018.76  2077.46  2081.92
                             2118.05  2118.93  2130.42  2131.95  2171.61
                             2178.77  2201.44  2206.22  2249.44  2250.22
                             2251.63  2278.16  2279.58  2346.40  2357.90
                             2358.13  2358.83  4564.73  4564.75  4569.36
                             4570.22  4589.57  4589.59  4589.86  4590.00
                             4613.38  4613.69  4613.70  4614.17  4619.14
                             4619.17  4619.26  4619.58  4649.64  4649.65
                             4649.77  4649.98

 Zero-point correction=                           0.393181 (Hartree/Particle)
 Thermal correction to Energy=                    0.418505
 Thermal correction to Enthalpy=                  0.419449
 Thermal correction to Gibbs Free Energy=         0.337228
 Sum of electronic and zero-point Energies=          -2299.185680
 Sum of electronic and thermal Energies=             -2299.160356
 Sum of electronic and thermal Enthalpies=           -2299.159412
 Sum of electronic and thermal Free Energies=        -2299.241633

                     E (Thermal)             CV                S
                      KCal/Mol        Cal/Mol-Kelvin    Cal/Mol-Kelvin
 Total                  262.616            103.206            173.049
 Electronic               0.000              0.000              3.198
 Translational            0.889              2.981             44.162
 Rotational               0.889              2.981             35.743
 Vibrational            260.838             97.244             89.945
 Vibration  1             0.594              1.983              5.731
 Vibration  2             0.595              1.980              5.064
 Vibration  3             0.595              1.980              5.049
 Vibration  4             0.595              1.979              4.978
 Vibration  5             0.595              1.979              4.935
 Vibration  6             0.599              1.964              3.939
 Vibration  7             0.601              1.958              3.728
 Vibration  8             0.603              1.953              3.574
 Vibration  9             0.613              1.919              2.886
 Vibration 10             0.614              1.918              2.862
 Vibration 11             0.615              1.913              2.794
 Vibration 12             0.617              1.908              2.733
 Vibration 13             0.634              1.852              2.213
 Vibration 14             0.642              1.826              2.045
 Vibration 15             0.652              1.796              1.881
 Vibration 16             0.653              1.793              1.870
 Vibration 17             0.661              1.769              1.755
 Vibration 18             0.663              1.762              1.729
 Vibration 19             0.684              1.697              1.490
 Vibration 20             0.687              1.690              1.466
 Vibration 21             0.688              1.688              1.460
 Vibration 22             0.697              1.660              1.377
 Vibration 23             0.710              1.623              1.279
 Vibration 24             0.714              1.611              1.250
 Vibration 25             0.721              1.591              1.202
 Vibration 26             0.762              1.481              0.982
 Vibration 27             0.762              1.481              0.982
 Vibration 28             0.777              1.442              0.917
 Vibration 29             0.783              1.426              0.892
 Vibration 30             0.796              1.393              0.842
 Vibration 31             0.796              1.393              0.841
 Vibration 32             0.839              1.287              0.702
 Vibration 33             0.847              1.269              0.680
 Vibration 34             0.861              1.238              0.645
 Vibration 35             0.865              1.229              0.635
 Vibration 36             0.874              1.208              0.612
 Vibration 37             0.876              1.203              0.607
 Vibration 38             0.877              1.202              0.606
 Vibration 39             0.878              1.200              0.604

 Optimization completed.
    -- Stationary point found.
 Normal termination of Gaussian 03 at Fri Apr  4 19:14:17 2008.
