                         Program Version 2.9.1 -  RELEASE  -
|  1> #
|  2> # g-tensor Calculation for an organic radical anion
|  3> #
|  4> #
|  5> ! UKS BP SV(P) TightSCF Grid4 NoFinalGrid Direct
|  6>
|  7> * xyz -1 2
|  8>  c 1.672238 -1.264072 0.009796
|  9>  c 0.335031 -0.940361 -0.075605
| 10>  c -0.121366 0.436182 -0.112778
| 11>  c 0.914606 1.448908 -0.053979
| 12>  c 2.251894 1.127195 0.031094
| 13>  c 2.719187 -0.252390 0.069099
| 14>  h 1.997766 -2.304445 0.036564
| 15>  h -0.429413 -1.716578 -0.118243
| 16>  o -1.362987 0.753407 -0.193423
| 17>  h 0.584162 2.487790 -0.081799
| 18> *
| 19> %eprnmr gtensor 1
| 20> endd                         ****END OF INPUT****
                         Program Version 2.9.1 -  RELEASE  -
|  1> #
|  2> # My first ORCA calculation :-)
|  3> #
|  4>
|  5> ! HF SVP
|  6>
|  7> %plots
|  8> Format CUBE
|  9> MO("Orbital-4.cube",2,0); #This would print orbital 4 of operator 0 (alpha spinorbital)
| 10> end
| 11>
| 12> * xyz 0 1
| 13>  C 0.0 0.0 0.0
| 14>  O 0.0 0.0 1.13
| 15> **                         ****END OF INPUT****
 Total Charge           Charge          ....    0
 Multiplicity           Mult            ....    1
 Number of Electrons    NEL             ....   14
FINAL SINGLE POINT ENERGY      -112.645712474562
                             ****ORCA TERMINATED NORMALLY****
TOTAL RUN TIME: 0 days 0 hours 0 minutes 2 seconds 64 msec
                         Program Version 2.9.1 -  RELEASE  -
|  1> #
|  2> # My first ORCA calculation :-)
|  3> #
|  4>
|  5> ! HF SVP
|  6>
|  7> %plots Format CUBE
|  8> MO("CO-4.cube",4,0);
|  9> MO("CO-8.cube",8,0);
| 10> end
| 11>
| 12> * xyz 0 1
| 13> C 0 0 0
| 14> O 0 0 1.13
| 15> **                         ****END OF INPUT****
FINAL SINGLE POINT ENERGY      -112.645712475113
                         Program Version 2.9.1 -  RELEASE  -
|  1> #
|  2> # My first ORCA calculation :-)
|  3> #
|  4>
|  5> ! HF SVP
|  6>
|  7> %plots Format CUBE
|  8> MO("CO-4.cube",4,0);
|  9> MO("CO-8.cube",8,0);
| 10> MO("CO-1.cube",1,0);
| 11> end
| 12>
| 13> * xyz 0 1
| 14> C 0 0 0
| 15> O 0 0 1.13
| 16> **                         ****END OF INPUT****

CARTESIAN COORDINATES (ANGSTROEM)
---------------------------------
  C      0.000000    0.000000    0.000000
  O      0.000000    0.000000    1.130000

 Multiplicity           Mult            ....    1
 Number of Electrons    NEL             ....   14
 Basis Dimension        Dim             ....   28

ORBITAL ENERGIES
----------------

  NO   OCC          E(Eh)            E(eV)
   0   2.0000     -20.667016      -562.3781
   1   2.0000     -11.369689      -309.3850
   2   2.0000      -1.507953       -41.0335
   3   2.0000      -0.797666       -21.7056
   4   2.0000      -0.642209       -17.4754
   5   2.0000      -0.642209       -17.4754
   6   2.0000      -0.551201       -14.9989
   7   0.0000       0.146699         3.9919
   8   0.0000       0.146699         3.9919
   9   0.0000       0.354121         9.6361
  10   0.0000       0.561632        15.2828
  11   0.0000       0.670037        18.2326

MULLIKEN ATOMIC CHARGES
-----------------------
   0 C :    0.170568
   1 O :   -0.170568
Sum of atomic charges:   -0.0000000

LOEWDIN ATOMIC CHARGES
----------------------
   0 C :    0.035592
   1 O :   -0.035592

  Mayer bond orders larger than 0.1
B(  0-C ,  1-O ) :   2.4220

FINAL SINGLE POINT ENERGY      -112.645712475236

DIPOLE MOMENT
-------------
                                X             Y             Z
Electronic contribution:     -0.00000      -0.00000      -0.09990
Nuclear contribution   :      0.00000       0.00000       0.00717
                        -----------------------------------------
Total Dipole Moment    :     -0.00000      -0.00000      -0.09273
                        -----------------------------------------
Magnitude (a.u.)       :      0.09273
Magnitude (Debye)      :      0.23571

                             ****ORCA TERMINATED NORMALLY****
TOTAL RUN TIME: 0 days 0 hours 0 minutes 2 seconds 263 msec
                         Program Version 2.9.1 -  RELEASE  -
