                         Program Version 3.0.2 -  RELEASE  -
|  1> %pal nprocs 8 end
|  2> !DFT PBE0 D3 Def2-TZVP SmallPrint
|  3>
|  4> %elprop Polar 1
|  5> end
|  6>
|  7> * xyz 0 1
|  8> C         -1.5438711224     -0.4654836563     -2.0110435500
|  9> C         -0.1455062426      0.0923875947     -2.1513099698
| 10> H          0.0430256587      0.4020709841     -3.1835754919
| 11> H          0.5983822115     -0.6613380660     -1.8764504280
| 12> H         -0.0115155268      0.9618692596     -1.5008733221
| 13> H         -1.6778663762     -1.3349566317     -2.6614908785
| 14> H         -2.2877600222      0.2882465786     -2.2858893421
| 15> H         -1.7323980401     -0.7751803092     -0.9787810969
| 16> *
| 17>
| 18>                          ****END OF INPUT****

CARTESIAN COORDINATES (ANGSTROEM)
---------------------------------
  C     -1.543871   -0.465484   -2.011044
  C     -0.145506    0.092388   -2.151310
  H      0.043026    0.402071   -3.183575
  H      0.598382   -0.661338   -1.876450
  H     -0.011516    0.961869   -1.500873
  H     -1.677866   -1.334957   -2.661491
  H     -2.287760    0.288247   -2.285889
  H     -1.732398   -0.775180   -0.978781

 Total Charge           Charge          ....    0
 Multiplicity           Mult            ....    1
 Number of Electrons    NEL             ....   18
 Basis Dimension        Dim             ....   98

ORBITAL ENERGIES
----------------

  NO   OCC          E(Eh)            E(eV)
   0   2.0000     -10.206405      -277.7304
   1   2.0000     -10.206144      -277.7233
   2   2.0000      -0.777729       -21.1631
   3   2.0000      -0.629205       -17.1215
   4   2.0000      -0.449936       -12.2434
   5   2.0000      -0.449910       -12.2427
   6   2.0000      -0.378114       -10.2890
   7   2.0000      -0.351403        -9.5621
   8   2.0000      -0.351241        -9.5578
   9   0.0000       0.052030         1.4158
  10   0.0000       0.092366         2.5134
  11   0.0000       0.120299         3.2735
  12   0.0000       0.121167         3.2971
  13   0.0000       0.134203         3.6518

MULLIKEN ATOMIC CHARGES
-----------------------
   0 C :   -0.341581
   1 C :   -0.341580
   2 H :    0.112237
   3 H :    0.115841
   4 H :    0.113502
   5 H :    0.113502
   6 H :    0.115841
   7 H :    0.112237
Sum of atomic charges:   -0.0000000

LOEWDIN ATOMIC CHARGES
----------------------
   0 C :   -0.352828
   1 C :   -0.352828
   2 H :    0.117386
   3 H :    0.117945
   4 H :    0.117497
   5 H :    0.117497
   6 H :    0.117945
   7 H :    0.117386

  Mayer bond orders larger than 0.1
B(  0-C ,  1-C ) :   1.0143 B(  0-C ,  5-H ) :   0.9728 B(  0-C ,  6-H ) :   0.9710
B(  0-C ,  7-H ) :   0.9733 B(  1-C ,  2-H ) :   0.9733 B(  1-C ,  3-H ) :   0.9710
B(  1-C ,  4-H ) :   0.9728

Dispersion correction           -0.002661207
FINAL SINGLE POINT ENERGY       -79.752656878739

DIPOLE MOMENT
-------------
                                X             Y             Z
Electronic contribution:      0.00000       0.00000       0.00000
Nuclear contribution   :     -0.00000       0.00000      -0.00000
                        -----------------------------------------
Total Dipole Moment    :      0.00000       0.00000       0.00000
                        -----------------------------------------
Magnitude (a.u.)       :      0.00000
Magnitude (Debye)      :      0.00000

                             ****ORCA TERMINATED NORMALLY****
TOTAL RUN TIME: 0 days 0 hours 0 minutes 49 seconds 357 msec
