                         Program Version 3.0.2 -  RELEASE  -
|  1> %pal nprocs 8 end
|  2> !DFT PBE0 D3 Def2-TZVPP SmallPrint
|  3>
|  4> %elprop Polar 1
|  5> end
|  6>
|  7> * xyz 0 1
|  8> C       -6.2752721157      4.3992728316      0.9816745189
|  9> C       -6.3316342968      3.1318139308      0.4148507263
| 10> C       -5.1567503339      2.4982260362     -0.0007338231
| 11> C       -3.8930692038      3.1137998276      0.1327176334
| 12> C       -3.8671449290      4.3869792533      0.7326130394
| 13> C       -5.0444823890      5.0243478304      1.1417486545
| 14> H       -4.9944412958      6.0121763133      1.5941249400
| 15> H       -7.1867528172      4.8930566028      1.3068033134
| 16> H       -2.9367482791      4.9192250082      0.9047208953
| 17> H       -7.2880028922      2.6282310916      0.3025286414
| 18> H       -5.2495050424      1.4958552905     -0.4134236815
| 19> C       -2.6039086569      2.3655866291     -0.3021888802
| 20> C       -2.8377118818      1.6076801069     -1.6335762197
| 21> H       -3.5088244088      0.7485337415     -1.5227559249
| 22> H       -1.8996866061      1.2318922574     -2.0581385423
| 23> H       -3.2898267074      2.2608129628     -2.3898593055
| 24> C       -1.3296014561      3.2578219499     -0.4245458190
| 25> S       -2.2927471947      1.1132098049      1.0929029270
| 26> S       -1.0840292303     -0.3602656352      0.3329536890
| 27> S        0.6635195412     -0.2643120145      1.3935311629
| 28> S        1.9575269234      0.8775868302      0.2986004358
| 29> S        2.7215743590     -0.3592128585     -1.1510988626
| 30> S       -1.4241278374      4.4983012220     -1.7856244978
| 31> H       -1.1190368095      3.7698735442      0.5206906843
| 32> H       -0.4575238312      2.6388503838     -0.6561957724
| 33> S       -0.2527371777      6.0433417177     -1.1150774539
| 34> S        1.6565910702      5.5881627330     -1.7018068021
| 35> S        2.4941317745      4.6318004576     -0.0969620217
| 36> H        2.8918336457      5.7024695691      0.6053666210
| 37> C        4.1546929562     -1.2301144896     -0.3727512007
| 38> C        3.6645142672     -2.2579937571      0.6483651576
| 39> H        3.2901983548     -1.7859112970      1.5612541566
| 40> H        4.4907274986     -2.9138762840      0.9464637221
| 41> H        2.8792009286     -2.8992357816      0.2335514819
| 42> C        5.2176203877     -0.3151644707      0.2586685100
| 43> H        4.6212159273     -1.7966318145     -1.1885891665
| 44> S        6.0882481841      0.7145735119     -0.9720656164
| 45> H        5.9728563590     -0.9449930928      0.7438915633
| 46> H        4.7836232466      0.3264036117      1.0319273181
| 47> S        7.5502391009      1.5866575364      0.1770122729
| 48> S        6.6696423956      3.2400204391      1.0099840675
| 49> S        6.8734019817      4.7121209620     -0.4022118161
| 50> H        8.1392064907      5.0760275078     -0.1493407264
| 51> *
| 52>
| 53>                          ****END OF INPUT****

CARTESIAN COORDINATES (ANGSTROEM)
---------------------------------
  C     -6.275272    4.399273    0.981675
  C     -6.331634    3.131814    0.414851
  C     -5.156750    2.498226   -0.000734
  C     -3.893069    3.113800    0.132718
  C     -3.867145    4.386979    0.732613
  C     -5.044482    5.024348    1.141749
  H     -4.994441    6.012176    1.594125
  H     -7.186753    4.893057    1.306803
  H     -2.936748    4.919225    0.904721
  H     -7.288003    2.628231    0.302529
  H     -5.249505    1.495855   -0.413424
  C     -2.603909    2.365587   -0.302189
  C     -2.837712    1.607680   -1.633576
  H     -3.508824    0.748534   -1.522756
  H     -1.899687    1.231892   -2.058139
  H     -3.289827    2.260813   -2.389859
  C     -1.329601    3.257822   -0.424546
  S     -2.292747    1.113210    1.092903
  S     -1.084029   -0.360266    0.332954
  S      0.663520   -0.264312    1.393531
  S      1.957527    0.877587    0.298600
  S      2.721574   -0.359213   -1.151099
  S     -1.424128    4.498301   -1.785624
  H     -1.119037    3.769874    0.520691
  H     -0.457524    2.638850   -0.656196
  S     -0.252737    6.043342   -1.115077
  S      1.656591    5.588163   -1.701807
  S      2.494132    4.631800   -0.096962
  H      2.891834    5.702470    0.605367
  C      4.154693   -1.230114   -0.372751
  C      3.664514   -2.257994    0.648365
  H      3.290198   -1.785911    1.561254
  H      4.490727   -2.913876    0.946464
  H      2.879201   -2.899236    0.233551
  C      5.217620   -0.315164    0.258669
  H      4.621216   -1.796632   -1.188589
  S      6.088248    0.714574   -0.972066
  H      5.972856   -0.944993    0.743892
  H      4.783623    0.326404    1.031927
  S      7.550239    1.586658    0.177012
  S      6.669642    3.240020    1.009984
  S      6.873402    4.712121   -0.402212
  H      8.139206    5.076028   -0.149341

 Total Charge           Charge          ....    0
 Multiplicity           Mult            ....    1
 Number of Electrons    NEL             ....  298
 Basis Dimension        Dim             .... 1170

ORBITAL ENERGIES
----------------

  NO   OCC          E(Eh)            E(eV)
   0   2.0000     -89.075728     -2423.8738
   1   2.0000     -89.073898     -2423.8240
   2   2.0000     -89.072663     -2423.7904
   3   2.0000     -89.071662     -2423.7631
   4   2.0000     -89.071300     -2423.7533
   5   2.0000     -89.069796     -2423.7124
   6   2.0000     -89.069789     -2423.7122
   7   2.0000     -89.053581     -2423.2711
   8   2.0000     -89.052229     -2423.2343
   9   2.0000     -89.051556     -2423.2160
  10   2.0000     -89.050502     -2423.1874
  11   2.0000     -89.050493     -2423.1871
  12   2.0000     -89.048013     -2423.1196
  13   2.0000     -10.305765      -280.4341
  14   2.0000     -10.289500      -279.9915
  15   2.0000     -10.271830      -279.5107
  16   2.0000     -10.268221      -279.4125
  17   2.0000     -10.259280      -279.1692
  18   2.0000     -10.240132      -278.6482
  19   2.0000     -10.239993      -278.6444
  20   2.0000     -10.236210      -278.5414
  21   2.0000     -10.235746      -278.5288
  22   2.0000     -10.234950      -278.5072
  23   2.0000     -10.233597      -278.4703
  24   2.0000     -10.231404      -278.4107
  25   2.0000      -8.050352      -219.0612
  26   2.0000      -8.048535      -219.0118
  27   2.0000      -8.047439      -218.9819
  28   2.0000      -8.047207      -218.9756
  29   2.0000      -8.045953      -218.9415
  30   2.0000      -8.044584      -218.9043
  31   2.0000      -8.044314      -218.8969
  32   2.0000      -8.029995      -218.5073
  33   2.0000      -8.029904      -218.5048
  34   2.0000      -8.028396      -218.4638
  35   2.0000      -8.027551      -218.4408
  36   2.0000      -8.026850      -218.4217
  37   2.0000      -8.024370      -218.3542
  38   2.0000      -5.987217      -162.9205
  39   2.0000      -5.985441      -162.8721
  40   2.0000      -5.984589      -162.8490
  41   2.0000      -5.984202      -162.8384
  42   2.0000      -5.983780      -162.8269
  43   2.0000      -5.982868      -162.8021
  44   2.0000      -5.981966      -162.7776
  45   2.0000      -5.981671      -162.7695
  46   2.0000      -5.981251      -162.7581
  47   2.0000      -5.981008      -162.7515
  48   2.0000      -5.980444      -162.7362
  49   2.0000      -5.979530      -162.7113
  50   2.0000      -5.978182      -162.6746
  51   2.0000      -5.978114      -162.6728
  52   2.0000      -5.977896      -162.6668
  53   2.0000      -5.976291      -162.6231
  54   2.0000      -5.974814      -162.5830
  55   2.0000      -5.974730      -162.5807
  56   2.0000      -5.973536      -162.5482
  57   2.0000      -5.971901      -162.5037
  58   2.0000      -5.971888      -162.5033
  59   2.0000      -5.966939      -162.3687
  60   2.0000      -5.966779      -162.3643
  61   2.0000      -5.965181      -162.3208
  62   2.0000      -5.964670      -162.3069
  63   2.0000      -5.963829      -162.2840
  64   2.0000      -5.963164      -162.2660
  65   2.0000      -5.963085      -162.2638
  66   2.0000      -5.961568      -162.2225
  67   2.0000      -5.961419      -162.2184
  68   2.0000      -5.960760      -162.2005
  69   2.0000      -5.960193      -162.1851
  70   2.0000      -5.957811      -162.1203
  71   2.0000      -5.957681      -162.1168
  72   2.0000      -5.957575      -162.1139
  73   2.0000      -5.956213      -162.0768
  74   2.0000      -5.955150      -162.0479
  75   2.0000      -5.954533      -162.0311
  76   2.0000      -5.952137      -161.9659
  77   2.0000      -0.901985       -24.5443
  78   2.0000      -0.887509       -24.1504
  79   2.0000      -0.875070       -23.8119
  80   2.0000      -0.869993       -23.6737
  81   2.0000      -0.861431       -23.4407
  82   2.0000      -0.850433       -23.1415
  83   2.0000      -0.819847       -22.3092
  84   2.0000      -0.808758       -22.0074
  85   2.0000      -0.798344       -21.7241
  86   2.0000      -0.776756       -21.1366
  87   2.0000      -0.768377       -20.9086
  88   2.0000      -0.751972       -20.4622
  89   2.0000      -0.745131       -20.2760
  90   2.0000      -0.737402       -20.0657
  91   2.0000      -0.701335       -19.0843
  92   2.0000      -0.686313       -18.6755
  93   2.0000      -0.678037       -18.4503
  94   2.0000      -0.652038       -17.7429
  95   2.0000      -0.630198       -17.1486
  96   2.0000      -0.626900       -17.0588
  97   2.0000      -0.612775       -16.6745
  98   2.0000      -0.606486       -16.5033
  99   2.0000      -0.586813       -15.9680
 100   2.0000      -0.570639       -15.5279
 101   2.0000      -0.536960       -14.6114
 102   2.0000      -0.501861       -13.6563
 103   2.0000      -0.488929       -13.3044
 104   2.0000      -0.486897       -13.2491
 105   2.0000      -0.482030       -13.1167
 106   2.0000      -0.479618       -13.0511
 107   2.0000      -0.473905       -12.8956
 108   2.0000      -0.469042       -12.7633
 109   2.0000      -0.459777       -12.5112
 110   2.0000      -0.450110       -12.2481
 111   2.0000      -0.446459       -12.1488
 112   2.0000      -0.443925       -12.0798
 113   2.0000      -0.432745       -11.7756
 114   2.0000      -0.430839       -11.7237
 115   2.0000      -0.422885       -11.5073
 116   2.0000      -0.421175       -11.4607
 117   2.0000      -0.414934       -11.2909
 118   2.0000      -0.408343       -11.1116
 119   2.0000      -0.404779       -11.0146
 120   2.0000      -0.403116       -10.9694
 121   2.0000      -0.399301       -10.8655
 122   2.0000      -0.394932       -10.7467
 123   2.0000      -0.393548       -10.7090
 124   2.0000      -0.387234       -10.5372
 125   2.0000      -0.383703       -10.4411
 126   2.0000      -0.379478       -10.3261
 127   2.0000      -0.378689       -10.3046
 128   2.0000      -0.369020       -10.0415
 129   2.0000      -0.364672        -9.9232
 130   2.0000      -0.358837        -9.7645
 131   2.0000      -0.353168        -9.6102
 132   2.0000      -0.349789        -9.5182
 133   2.0000      -0.347514        -9.4563
 134   2.0000      -0.296237        -8.0610
 135   2.0000      -0.295149        -8.0314
 136   2.0000      -0.291932        -7.9439
 137   2.0000      -0.290220        -7.8973
 138   2.0000      -0.282816        -7.6958
 139   2.0000      -0.279341        -7.6013
 140   2.0000      -0.276133        -7.5140
 141   2.0000      -0.275105        -7.4860
 142   2.0000      -0.274419        -7.4673
 143   2.0000      -0.269831        -7.3425
 144   2.0000      -0.265314        -7.2196
 145   2.0000      -0.262580        -7.1452
 146   2.0000      -0.253100        -6.8872
 147   2.0000      -0.250054        -6.8043
 148   2.0000      -0.243038        -6.6134
 149   0.0000      -0.057838        -1.5738
 150   0.0000      -0.047143        -1.2828
 151   0.0000      -0.043708        -1.1894
 152   0.0000      -0.038885        -1.0581
 153   0.0000      -0.034512        -0.9391

MULLIKEN ATOMIC CHARGES
-----------------------
   0 C :   -0.096522
   1 C :   -0.142230
   2 C :   -0.103888
   3 C :   -0.042569
   4 C :   -0.107017
   5 C :   -0.102804
   6 H :    0.106158
   7 H :    0.105841
   8 H :    0.095708
   9 H :    0.118652
  10 H :    0.089333
  11 C :    0.197910
  12 C :   -0.319330
  13 H :    0.097215
  14 H :    0.101992
  15 H :    0.124560
  16 C :   -0.156069
  17 S :   -0.056426
  18 S :   -0.037078
  19 S :   -0.019891
  20 S :   -0.046950
  21 S :   -0.057970
  22 S :   -0.046268
  23 H :    0.118657
  24 H :    0.125424
  25 S :   -0.048451
  26 S :   -0.019917
  27 S :   -0.103836
  28 H :    0.117951
  29 C :    0.011613
  30 C :   -0.267481
  31 H :    0.086094
  32 H :    0.092965
  33 H :    0.101363
  34 C :   -0.143254
  35 H :    0.091766
  36 S :   -0.043311
  37 H :    0.119390
  38 H :    0.120036
  39 S :   -0.046094
  40 S :   -0.034826
  41 S :   -0.099383
  42 H :    0.118938
Sum of atomic charges:   -0.0000000

LOEWDIN ATOMIC CHARGES
----------------------
   0 C :   -0.014107
   1 C :   -0.014691
   2 C :    0.003969
   3 C :   -0.096795
   4 C :    0.000095
   5 C :   -0.009737
   6 H :    0.020685
   7 H :    0.019998
   8 H :    0.018704
   9 H :    0.020717
  10 H :    0.021998
  11 C :   -0.353173
  12 C :   -0.029056
  13 H :    0.012910
  14 H :    0.014303
  15 H :    0.021228
  16 C :   -0.286998
  17 S :    0.319321
  18 S :    0.026267
  19 S :   -0.000698
  20 S :    0.026310
  21 S :    0.302838
  22 S :    0.300909
  23 H :   -0.001029
  24 H :   -0.006220
  25 S :    0.008339
  26 S :    0.002762
  27 S :    0.183504
  28 H :   -0.180203
  29 C :   -0.357037
  30 C :   -0.029366
  31 H :    0.009527
  32 H :    0.015453
  33 H :    0.017186
  34 C :   -0.302668
  35 H :    0.015632
  36 S :    0.292423
  37 H :    0.005250
  38 H :   -0.006887
  39 S :    0.013441
  40 S :   -0.010974
  41 S :    0.185800
  42 H :   -0.179929

  Mayer bond orders larger than 0.1
B(  0-C ,  1-C ) :   1.4498 B(  0-C ,  5-C ) :   1.4596 B(  0-C ,  7-H ) :   0.9584
B(  1-C ,  2-C ) :   1.4764 B(  1-C ,  9-H ) :   0.9608 B(  2-C ,  3-C ) :   1.3806
B(  2-C , 10-H ) :   0.9682 B(  3-C ,  4-C ) :   1.3739 B(  3-C , 11-C ) :   0.9212
B(  4-C ,  5-C ) :   1.4739 B(  4-C ,  8-H ) :   0.9589 B(  5-C ,  6-H ) :   0.9576
B( 11-C , 12-C ) :   0.9689 B( 11-C , 16-C ) :   0.9350 B( 11-C , 17-S ) :   0.9575
B( 12-C , 13-H ) :   0.9760 B( 12-C , 14-H ) :   0.9793 B( 12-C , 15-H ) :   0.9668
B( 16-C , 22-S ) :   0.9619 B( 16-C , 23-H ) :   0.9637 B( 16-C , 24-H ) :   0.9547
B( 17-S , 18-S ) :   1.1635 B( 18-S , 19-S ) :   1.1564 B( 19-S , 20-S ) :   1.1494
B( 20-S , 21-S ) :   1.1875 B( 21-S , 29-C ) :   0.9538 B( 22-S , 25-S ) :   1.1856
B( 25-S , 26-S ) :   1.1652 B( 26-S , 27-S ) :   1.1780 B( 27-S , 28-H ) :   0.9863
B( 29-C , 30-C ) :   0.9732 B( 29-C , 34-C ) :   0.9673 B( 29-C , 35-H ) :   0.9582
B( 30-C , 31-H ) :   0.9763 B( 30-C , 32-H ) :   0.9740 B( 30-C , 33-H ) :   0.9813
B( 34-C , 36-S ) :   0.9924 B( 34-C , 37-H ) :   0.9685 B( 34-C , 38-H ) :   0.9621
B( 36-S , 39-S ) :   1.1850 B( 39-S , 40-S ) :   1.1648 B( 40-S , 41-S ) :   1.1751
B( 41-S , 42-H ) :   0.9873

Dispersion correction           -0.075062686
FINAL SINGLE POINT ENERGY     -5642.754654065976

DIPOLE MOMENT
-------------
                                X             Y             Z
Electronic contribution:     22.33295      10.09704      -2.87591
Nuclear contribution   :    -22.28200     -10.57540       3.46233
                        -----------------------------------------
Total Dipole Moment    :      0.05094      -0.47836       0.58642
                        -----------------------------------------
Magnitude (a.u.)       :      0.75850
Magnitude (Debye)      :      1.92794

                             ****ORCA TERMINATED NORMALLY****
TOTAL RUN TIME: 0 days 1 hours 59 minutes 38 seconds 304 msec
