                         Program Version 2.9.1 -  RELEASE  -
|  1> #
|  2> # My first ORCA calculation :-)
|  3> #
|  4>
|  5> ! HF SVP
|  6>
|  7> * xyz 0 1
|  8>  C 0.0 0.0 0.0
|  9>  O 0.0 0.0 1.13
| 10> **                         ****END OF INPUT****

CARTESIAN COORDINATES (ANGSTROEM)
---------------------------------
  C      0.000000    0.000000    0.000000
  O      0.000000    0.000000    1.130000

 Total Charge           Charge          ....    0
 Multiplicity           Mult            ....    1
 Number of Electrons    NEL             ....   14
 Basis Dimension        Dim             ....   28

ORBITAL ENERGIES
----------------

  NO   OCC          E(Eh)            E(eV)
   0   2.0000     -20.667180      -562.3826
   1   2.0000     -11.369622      -309.3831
   2   2.0000      -1.507995       -41.0346
   3   2.0000      -0.797723       -21.7071
   4   2.0000      -0.642243       -17.4763
   5   2.0000      -0.642243       -17.4763
   6   2.0000      -0.551183       -14.9984
   7   0.0000       0.146703         3.9920
   8   0.0000       0.146703         3.9920
   9   0.0000       0.354122         9.6361
  10   0.0000       0.561652        15.2833
  11   0.0000       0.670058        18.2332

MULLIKEN ATOMIC CHARGES
-----------------------
   0 C :    0.170696
   1 O :   -0.170696
Sum of atomic charges:   -0.0000000

LOEWDIN ATOMIC CHARGES
----------------------
   0 C :    0.035691
   1 O :   -0.035691

  Mayer bond orders larger than 0.1
B(  0-C ,  1-O ) :   2.4219

FINAL SINGLE POINT ENERGY      -112.645712458337

DIPOLE MOMENT
-------------
                                X             Y             Z
Electronic contribution:     -0.00000      -0.00000      -0.10009
Nuclear contribution   :      0.00000       0.00000       0.00717
                        -----------------------------------------
Total Dipole Moment    :     -0.00000      -0.00000      -0.09292
                        -----------------------------------------
Magnitude (a.u.)       :      0.09292
Magnitude (Debye)      :      0.23619

                             ****ORCA TERMINATED NORMALLY****
TOTAL RUN TIME: 0 days 0 hours 0 minutes 17 seconds 514 msec
