                         Program Version 2.9.1 -  RELEASE  -
|  1> #
|  2> # Test redundant internal optimization
|  3> #
|  4> ! RKS B3LYP SVP Opt TightSCF SmallPrint
|  5> * xyz 0 1
|  6> C -1.48746 -0.02867 -0.00006
|  7> O 0.37634 0.02867 -0.00006
|  8> H -1.81891 -1.06706 -0.00006
|  9> H -1.86647 0.47370 0.88993
| 10> H -1.86647 0.47370 -0.89004
| 11> H 0.75672 -0.95001 -0.00006
| 12> **                         ****END OF INPUT****
 Total Charge           Charge          ....    0
 Multiplicity           Mult            ....    1
 Number of Electrons    NEL             ....   18
FINAL SINGLE POINT ENERGY      -115.498914296436
FINAL SINGLE POINT ENERGY      -115.530237225348
FINAL SINGLE POINT ENERGY      -115.553007742536
FINAL SINGLE POINT ENERGY      -115.561299614056
FINAL SINGLE POINT ENERGY      -115.562827276735
FINAL SINGLE POINT ENERGY      -115.563416064889
FINAL SINGLE POINT ENERGY      -115.563427268626
                    ***********************HURRAY********************

CARTESIAN COORDINATES (ANGSTROEM)
---------------------------------
  C     -1.311227   -0.051649   -0.000058
  O      0.097249    0.033589   -0.000058
  H     -1.683603   -1.092187   -0.000059
  H     -1.734889    0.449028    0.891357
  H     -1.734890    0.449030   -0.891471
  H      0.461110   -0.857480   -0.000061

 Multiplicity           Mult            ....    1
 Number of Electrons    NEL             ....   18
 Basis Dimension        Dim             ....   48

ORBITAL ENERGIES
----------------

  NO   OCC          E(Eh)            E(eV)
   0   2.0000     -19.117678      -520.2185
   1   2.0000     -10.225241      -278.2430
   2   2.0000      -0.995907       -27.1000
   3   2.0000      -0.666806       -18.1447
   4   2.0000      -0.502358       -13.6699
   5   2.0000      -0.428587       -11.6624
   6   2.0000      -0.419783       -11.4229
   7   2.0000      -0.323597        -8.8055
   8   2.0000      -0.261594        -7.1183
   9   0.0000       0.050971         1.3870
  10   0.0000       0.093784         2.5520
  11   0.0000       0.136985         3.7276
  12   0.0000       0.142423         3.8755
  13   0.0000       0.206594         5.6217

MULLIKEN ATOMIC CHARGES
-----------------------
   0 C :    0.151115
   1 O :   -0.332246
   2 H :   -0.000877
   3 H :    0.009295
   4 H :    0.009295
   5 H :    0.163418
Sum of atomic charges:   -0.0000000

LOEWDIN ATOMIC CHARGES
----------------------
   0 C :    0.061420
   1 O :   -0.158715
   2 H :    0.005245
   3 H :    0.008202
   4 H :    0.008202
   5 H :    0.075646

  Mayer bond orders larger than 0.1
B(  0-C ,  1-O ) :   1.0399 B(  0-C ,  2-H ) :   0.9797 B(  0-C ,  3-H ) :   0.9728
B(  0-C ,  4-H ) :   0.9728 B(  1-O ,  5-H ) :   0.9892

FINAL SINGLE POINT ENERGY      -115.563427615737

DIPOLE MOMENT
-------------
                                X             Y             Z
Electronic contribution:      1.89303       0.22720      -0.00000
Nuclear contribution   :     -2.17577      -0.85171      -0.00000
                        -----------------------------------------
Total Dipole Moment    :     -0.28274      -0.62451      -0.00000
                        -----------------------------------------
Magnitude (a.u.)       :      0.68553
Magnitude (Debye)      :      1.74249

                             ****ORCA TERMINATED NORMALLY****
TOTAL RUN TIME: 0 days 0 hours 1 minutes 32 seconds 931 msec
