                         Program Version 2.9.1 -  RELEASE  -
|  1> #
|  2> # Geometry optimization of [Fe(H2O)6]3+ employing DFT
|  3> # The RI approximation is used
|  4> # The SV(P) basis set was replaced by the TZVPP basis set for iron
|  5> #
|  6>
|  7> ! UKS BP SV(P) SV/J OPT Split-RI-J
|  8>
|  9> %basis NewGTO 26 "TZVPP" end
| 10>  NewAuxGTO 26 "TZV/J" end
| 11>  end
| 12>
| 13> * xyz 3 6
| 14>  Fe 0.000047 -0.000114 0.000013
| 15>  O -0.199873 1.108797 1.733279
| 16>  H 0.380320 1.865880 2.020956
| 17>  O -1.236638 1.328040 -0.990513
| 18>  H -1.665421 2.138758 -0.601345
| 19>  O -1.643746 -1.133837 0.535682
| 20>  H -2.594241 -0.943118 0.306097
| 21>  O 0.198381 -1.109845 -1.732630
| 22>  H 0.891437 -0.986937 -2.437690
| 23>  O 1.238604 -1.327482 0.989961
| 24>  H 1.513573 -1.279077 1.946292
| 25>  O 1.643403 1.134541 -0.535766
| 26>  H 2.593848 0.945769 -0.304430
| 27>  H -1.516941 1.276571 -1.945157
| 28>  H 1.632468 1.972748 -1.074090
| 29>  H -0.894758 0.986836 2.436707
| 30>  H 1.671714 -2.135426 0.599824
| 31>  H -0.383130 -1.865932 -2.020344
| 32>  H -1.633554 -1.973176 1.072267
| 33> **                         ****END OF INPUT****
 Total Charge           Charge          ....    3
 Multiplicity           Mult            ....    6
 Number of Electrons    NEL             ....   83
FINAL SINGLE POINT ENERGY     -1721.015130065577
FINAL SINGLE POINT ENERGY     -1721.015124430386
FINAL SINGLE POINT ENERGY     -1721.015127792494
                    ***********************HURRAY********************

CARTESIAN COORDINATES (ANGSTROEM)
---------------------------------
  Fe    -0.000194    0.000039   -0.000084
  O     -0.200628    1.110704    1.732207
  H      0.381224    1.866188    2.021321
  O     -1.237561    1.327420   -0.990985
  H     -1.664808    2.138991   -0.602405
  O     -1.644022   -1.132766    0.536706
  H     -2.594629   -0.940979    0.307979
  O      0.199414   -1.111193   -1.731941
  H      0.892068   -0.986918   -2.437442
  O      1.238353   -1.326679    0.990511
  H      1.518927   -1.274610    1.944995
  O      1.643389    1.133336   -0.536828
  H      2.594053    0.942324   -0.307700
  H     -1.519072    1.275188   -1.945191
  H      1.632290    1.977076   -1.066791
  H     -0.893759    0.986316    2.437209
  H      1.666476   -2.137831    0.602025
  H     -0.382629   -1.866719   -2.020554
  H     -1.633400   -1.976892    1.066079

 Multiplicity           Mult            ....    6
 Number of Electrons    NEL             ....   83
 Basis Dimension        Dim             ....  148

ORBITAL ENERGIES
----------------
                 SPIN UP ORBITALS
  NO   OCC          E(Eh)            E(eV)
   0   1.0000    -255.443699     -6950.9764
   1   1.0000     -30.218946      -822.2993
   2   1.0000     -26.149253      -711.5574
   3   1.0000     -26.149245      -711.5571
   4   1.0000     -26.149222      -711.5565
   5   1.0000     -19.325587      -525.8760
   6   1.0000     -19.325560      -525.8752
   7   1.0000     -19.325296      -525.8680
   8   1.0000     -19.325278      -525.8675
   9   1.0000     -19.325271      -525.8674
  10   1.0000     -19.325205      -525.8656
  11   1.0000      -3.993466      -108.6677
  12   1.0000      -2.804552       -76.3157
  13   1.0000      -2.804513       -76.3147
  14   1.0000      -2.804454       -76.3131
  15   1.0000      -1.450402       -39.4674
  16   1.0000      -1.441393       -39.2223
  17   1.0000      -1.441214       -39.2174
  18   1.0000      -1.441201       -39.2171
  19   1.0000      -1.439490       -39.1705
  20   1.0000      -1.439376       -39.1674
  21   1.0000      -1.008666       -27.4472
  22   1.0000      -1.008429       -27.4407
  23   1.0000      -1.008312       -27.4376
  24   1.0000      -1.006011       -27.3750
  25   1.0000      -1.005794       -27.3691
  26   1.0000      -1.005728       -27.3673
  27   1.0000      -0.972190       -26.4546
  28   1.0000      -0.968134       -26.3443
  29   1.0000      -0.968035       -26.3416
  30   1.0000      -0.917037       -24.9539
  31   1.0000      -0.916737       -24.9457
  32   1.0000      -0.916670       -24.9439
  33   1.0000      -0.890012       -24.2185
  34   1.0000      -0.889927       -24.2162
  35   1.0000      -0.889825       -24.2134
  36   1.0000      -0.802970       -21.8499
  37   1.0000      -0.802955       -21.8495
  38   1.0000      -0.802732       -21.8435
  39   1.0000      -0.793463       -21.5912
  40   1.0000      -0.793425       -21.5902
  41   1.0000      -0.793263       -21.5858
  42   1.0000      -0.788635       -21.4598
  43   1.0000      -0.788580       -21.4583
  44   0.0000      -0.494144       -13.4464
  45   0.0000      -0.436635       -11.8814
  46   0.0000      -0.435640       -11.8544
  47   0.0000      -0.435393       -11.8477
  48   0.0000      -0.403256       -10.9732

                 SPIN DOWN ORBITALS
  NO   OCC          E(Eh)            E(eV)
   0   1.0000    -255.442644     -6950.9477
   1   1.0000     -30.137780      -820.0907
   2   1.0000     -26.087770      -709.8843
   3   1.0000     -26.087763      -709.8841
   4   1.0000     -26.087741      -709.8835
   5   1.0000     -19.321973      -525.7776
   6   1.0000     -19.321947      -525.7769
   7   1.0000     -19.321707      -525.7704
   8   1.0000     -19.321680      -525.7696
   9   1.0000     -19.321671      -525.7694
  10   1.0000     -19.321608      -525.7677
  11   1.0000      -3.813395      -103.7677
  12   1.0000      -2.628370       -71.5216
  13   1.0000      -2.628342       -71.5208
  14   1.0000      -2.628323       -71.5203
  15   1.0000      -1.443833       -39.2887
  16   1.0000      -1.434975       -39.0477
  17   1.0000      -1.434821       -39.0435
  18   1.0000      -1.434792       -39.0427
  19   1.0000      -1.432862       -38.9901
  20   1.0000      -1.432761       -38.9874
  21   1.0000      -1.003588       -27.3090
  22   1.0000      -1.003352       -27.3026
  23   1.0000      -1.003243       -27.2996
  24   1.0000      -1.002723       -27.2855
  25   1.0000      -1.002507       -27.2796
  26   1.0000      -1.002438       -27.2777
  27   1.0000      -0.960482       -26.1360
  28   1.0000      -0.922783       -25.1102
  29   1.0000      -0.922617       -25.1057
  30   1.0000      -0.908374       -24.7181
  31   1.0000      -0.908050       -24.7093
  32   1.0000      -0.907967       -24.7070
  33   1.0000      -0.804585       -21.8939
  34   1.0000      -0.804400       -21.8888
  35   1.0000      -0.804106       -21.8808
  36   1.0000      -0.792466       -21.5641
  37   1.0000      -0.792406       -21.5625
  38   1.0000      -0.792160       -21.5558
  39   0.0000      -0.712459       -19.3870
  40   0.0000      -0.712352       -19.3841
  41   0.0000      -0.712155       -19.3787
  42   0.0000      -0.664543       -18.0831
  43   0.0000      -0.664500       -18.0820

MULLIKEN ATOMIC CHARGES AND SPIN POPULATIONS
--------------------------------------------
   0 Fe:    1.083912    4.209884
   1 O :   -0.553154    0.127203
   2 H :    0.436697    0.002455
   3 O :   -0.554125    0.126329
   4 H :    0.436300    0.002400
   5 O :   -0.554719    0.126887
   6 H :    0.436626    0.002431
   7 O :   -0.553146    0.127234
   8 H :    0.436911    0.002426
   9 O :   -0.554086    0.126368
  10 H :    0.436718    0.002421
  11 O :   -0.554642    0.126972
  12 H :    0.436632    0.002427
  13 H :    0.436744    0.002428
  14 H :    0.436688    0.002423
  15 H :    0.436885    0.002425
  16 H :    0.436321    0.002400
  17 H :    0.436708    0.002458
  18 H :    0.436730    0.002431
Sum of atomic charges         :    3.0000000

LOEWDIN ATOMIC CHARGES AND SPIN POPULATIONS
-------------------------------------------
   0 Fe:    0.487279    4.177771
   1 O :   -0.326752    0.133243
   2 H :    0.373001    0.002040
   3 O :   -0.327564    0.132513
   4 H :    0.372909    0.002005
   5 O :   -0.327303    0.133122
   6 H :    0.372944    0.002036
   7 O :   -0.326697    0.133274
   8 H :    0.373165    0.002023
   9 O :   -0.327569    0.132549
  10 H :    0.372970    0.002025
  11 O :   -0.327265    0.133202
  12 H :    0.372948    0.002033
  13 H :    0.372993    0.002031
  14 H :    0.372914    0.002027
  15 H :    0.373145    0.002022
  16 H :    0.372925    0.002006
  17 H :    0.373009    0.002043
  18 H :    0.372948    0.002034

  Mayer bond orders larger than 0.1
B(  0-Fe,  1-O ) :   0.5241 B(  0-Fe,  3-O ) :   0.5213 B(  0-Fe,  5-O ) :   0.5199
B(  0-Fe,  7-O ) :   0.5242 B(  0-Fe,  9-O ) :   0.5214 B(  0-Fe, 11-O ) :   0.5201
B(  1-O ,  2-H ) :   0.7750 B(  1-O , 15-H ) :   0.7748 B(  3-O ,  4-H ) :   0.7752
B(  3-O , 13-H ) :   0.7750 B(  5-O ,  6-H ) :   0.7750 B(  5-O , 18-H ) :   0.7751
B(  7-O ,  8-H ) :   0.7747 B(  7-O , 17-H ) :   0.7750 B(  9-O , 10-H ) :   0.7750
B(  9-O , 16-H ) :   0.7752 B( 11-O , 12-H ) :   0.7750 B( 11-O , 14-H ) :   0.7751

FINAL SINGLE POINT ENERGY     -1721.015128279970

DIPOLE MOMENT
-------------
                                X             Y             Z
Electronic contribution:      0.00022      -0.00086      -0.00040
Nuclear contribution   :     -0.00091       0.00105       0.00035
                        -----------------------------------------
Total Dipole Moment    :     -0.00069       0.00018      -0.00006
                        -----------------------------------------
Magnitude (a.u.)       :      0.00072
Magnitude (Debye)      :      0.00183

                             ****ORCA TERMINATED NORMALLY****
TOTAL RUN TIME: 0 days 0 hours 4 minutes 6 seconds 417 msec
