                         Program Version 3.0.2 -  RELEASE  -
|  1> ! RHF DZ LARGEPRINT PRINTBASIS PRINTGAP ALLPOP
|  2>
|  3> * xyz 0 1
|  4> Li      -2.6077434864      1.6215265031      0.0435645003
|  5> H       -0.7878755679      1.5789122137      0.0000000000
|  6> *
|  7>
|  8>                          ****END OF INPUT****

CARTESIAN COORDINATES (ANGSTROEM)
---------------------------------
  Li    -2.607743    1.621527    0.043565
  H     -0.787876    1.578912    0.000000

 Total Charge           Charge          ....    0
 Multiplicity           Mult            ....    1
 Number of Electrons    NEL             ....    4
 Basis Dimension        Dim             ....    6

ORBITAL ENERGIES
----------------

  NO   OCC          E(Eh)            E(eV)
   0   2.0000      -2.492522       -67.8250
   1   2.0000      -0.285273        -7.7627
   2   0.0000       0.037812         1.0289
   3   0.0000       0.805009        21.9054
   4   0.0000       1.351009        36.7628
   5   0.0000      10.150394       276.2063
------------------
MOLECULAR ORBITALS
------------------
                      0         1         2         3         4         5
                  -2.49252  -0.28527   0.03781   0.80501   1.35101  10.15039
                   2.00000   2.00000   0.00000   0.00000   0.00000   0.00000
                  --------  --------  --------  --------  --------  --------
  0Li  1s         0.393116  0.039336 -0.045286 -0.014706  0.184455  1.601408
  0Li  2s         0.452838  0.073173 -0.054647 -0.014091  1.282936 -2.360301
  0Li  3s         0.277691  0.045792 -0.124767 -0.045820 -1.824252  1.186115
  0Li  4s         0.005382 -0.304673  1.213402 -0.314425  0.401700 -0.144021
  1H   1s         0.002034 -0.365923 -0.119341 -1.361766 -0.038759  0.003931
  1H   2s        -0.001595 -0.535750 -0.741669  1.390372  0.034292 -0.001944

MULLIKEN ATOMIC CHARGES
-----------------------
   0 Li:    0.597637
   1 H :   -0.597637
Sum of atomic charges:    0.0000000

LOEWDIN ATOMIC CHARGES
----------------------
   0 Li:    0.574661
   1 H :   -0.574661

  Mayer bond orders larger than 0.1
B(  0-Li,  1-H ) :   0.6418

FINAL SINGLE POINT ENERGY        -7.965051505321

DIPOLE MOMENT
-------------
                                X             Y             Z
Electronic contribution:     -4.23523       0.09917       0.10138
Nuclear contribution   :      1.69465      -0.03968      -0.04057
                        -----------------------------------------
Total Dipole Moment    :     -2.54058       0.05949       0.06082
                        -----------------------------------------
Magnitude (a.u.)       :      2.54200
Magnitude (Debye)      :      6.46126

                             ****ORCA TERMINATED NORMALLY****
TOTAL RUN TIME: 0 days 0 hours 0 minutes 3 seconds 855 msec
